MODEL 1
REMARK VINA RESULT:   -10.828      0.000      0.000
REMARK INTER + INTRA:         -15.377
REMARK INTER:                 -14.627
REMARK INTRA:                  -0.750
REMARK UNBOUND:                -0.750
REMARK  Name = CHEMBL264478
REMARK  6 active torsions:
REMARK  status: ('A' for Active; 'I' for Inactive)
REMARK    1  A    between atoms: C_2  and  C_4
REMARK    2  A    between atoms: C_10  and  C_11
REMARK    3  A    between atoms: C_11  and  N_12
REMARK    4  A    between atoms: C_15  and  C_16
REMARK    5  A    between atoms: C_20  and  C_21
REMARK    6  A    between atoms: C_22  and  C_23
REMARK                            x       y       z     vdW  Elec       q    Type
REMARK                         _______ _______ _______ _____ _____    ______ ____
ROOT
ATOM      1  C   UNL     1      22.565   9.115 -12.604  0.00  0.00    +0.023 A 
ATOM      2  C   UNL     1      23.096   9.927 -11.594  0.00  0.00    +0.012 A 
ATOM      3  C   UNL     1      23.500  11.234 -11.876  0.00  0.00    +0.001 A 
ATOM      4  C   UNL     1      23.370  11.743 -13.169  0.00  0.00    +0.008 A 
ATOM      5  C   UNL     1      22.826  10.957 -14.192  0.00  0.00    -0.024 A 
ATOM      6  C   UNL     1      22.440   9.641 -13.900  0.00  0.00    +0.019 A 
ENDROOT
BRANCH   1  10
ATOM      7  N   UNL     1      21.058   6.038 -11.891  0.00  0.00    -0.158 N 
ATOM      8  N   UNL     1      22.336   5.611 -11.970  0.00  0.00    -0.045 NA
ATOM      9  N   UNL     1      23.042   6.698 -12.244  0.00  0.00    -0.108 NA
ATOM     10  C   UNL     1      22.154   7.747 -12.315  0.00  0.00    +0.205 A 
ATOM     11  N   UNL     1      20.883   7.365 -12.102  0.00  0.00    -0.130 NA
BRANCH   7  12
ATOM     12  C   UNL     1      19.949   5.135 -11.596  0.00  0.00    +0.204 C 
BRANCH  12  19
ATOM     13  C   UNL     1      18.832   3.777  -9.746  0.00  0.00    +0.071 A 
ATOM     14  C   UNL     1      18.737   3.405  -8.388  0.00  0.00    +0.053 A 
ATOM     15  C   UNL     1      19.613   3.919  -7.444  0.00  0.00    +0.124 A 
ATOM     16  F   UNL     1      19.507   3.547  -6.161  0.00  0.00    -0.205 F 
ATOM     17  C   UNL     1      20.606   4.811  -7.813  0.00  0.00    +0.039 A 
ATOM     18  C   UNL     1      20.721   5.202  -9.148  0.00  0.00    +0.009 A 
ATOM     19  C   UNL     1      19.839   4.710 -10.135  0.00  0.00    -0.010 A 
BRANCH  13  21
ATOM     20  O   UNL     1      16.712   3.701 -10.837  0.00  0.00    -0.241 OA
ATOM     21  C   UNL     1      17.849   3.147 -10.725  0.00  0.00    +0.387 C 
ATOM     22  O   UNL     1      18.231   2.112 -11.354  0.00  0.00    -0.241 OA
ENDBRANCH  13  21
ENDBRANCH  12  19
ENDBRANCH   7  12
ENDBRANCH   1  10
BRANCH   5  23
ATOM     23  C   UNL     1      22.697  11.438 -15.577  0.00  0.00    +0.010 C 
ATOM     24  C   UNL     1      21.953  10.835 -16.518  0.00  0.00    +0.028 C 
BRANCH  24  25
ATOM     25  C   UNL     1      21.812  11.290 -17.906  0.00  0.00    +0.065 A 
ATOM     26  C   UNL     1      20.604  11.711 -18.447  0.00  0.00    +0.028 A 
ATOM     27  C   UNL     1      20.582  12.154 -19.766  0.00  0.00    +0.012 A 
ATOM     28  C   UNL     1      21.766  12.175 -20.511  0.00  0.00    +0.001 A 
ATOM     29  C   UNL     1      21.789  12.612 -21.846  0.00  0.00    +0.011 A 
ATOM     30  C   UNL     1      22.988  12.623 -22.555  0.00  0.00    +0.021 A 
ATOM     31  C   UNL     1      24.155  12.198 -21.929  0.00  0.00    +0.043 A 
ATOM     32 CL   UNL     1      25.640  12.210 -22.799  0.00  0.00    -0.083 Cl
ATOM     33  C   UNL     1      24.132  11.765 -20.604  0.00  0.00    +0.048 A 
ATOM     34  C   UNL     1      22.951  11.744 -19.878  0.00  0.00    +0.073 A 
ATOM     35  N   UNL     1      22.973  11.320 -18.603  0.00  0.00    -0.247 NA
ENDBRANCH  24  25
ENDBRANCH   5  23
TORSDOF 6
ENDMDL
MODEL 2
REMARK VINA RESULT:   -10.373      1.585      2.094
REMARK INTER + INTRA:         -14.762
REMARK INTER:                 -13.831
REMARK INTRA:                  -0.931
REMARK UNBOUND:                -0.750
REMARK  Name = CHEMBL264478
REMARK  6 active torsions:
REMARK  status: ('A' for Active; 'I' for Inactive)
REMARK    1  A    between atoms: C_2  and  C_4
REMARK    2  A    between atoms: C_10  and  C_11
REMARK    3  A    between atoms: C_11  and  N_12
REMARK    4  A    between atoms: C_15  and  C_16
REMARK    5  A    between atoms: C_20  and  C_21
REMARK    6  A    between atoms: C_22  and  C_23
REMARK                            x       y       z     vdW  Elec       q    Type
REMARK                         _______ _______ _______ _____ _____    ______ ____
ROOT
ATOM      1  C   UNL     1      22.038   8.913 -12.535  0.00  0.00    +0.023 A 
ATOM      2  C   UNL     1      22.781   9.577 -11.550  0.00  0.00    +0.012 A 
ATOM      3  C   UNL     1      23.440  10.772 -11.848  0.00  0.00    +0.001 A 
ATOM      4  C   UNL     1      23.357  11.317 -13.130  0.00  0.00    +0.008 A 
ATOM      5  C   UNL     1      22.607  10.681 -14.127  0.00  0.00    -0.024 A 
ATOM      6  C   UNL     1      21.963   9.474 -13.820  0.00  0.00    +0.019 A 
ENDROOT
BRANCH   1  10
ATOM      7  N   UNL     1      20.901   5.738 -11.599  0.00  0.00    -0.158 N 
ATOM      8  N   UNL     1      19.742   6.216 -12.100  0.00  0.00    -0.045 NA
ATOM      9  N   UNL     1      20.027   7.445 -12.503  0.00  0.00    -0.108 NA
ATOM     10  C   UNL     1      21.359   7.660 -12.231  0.00  0.00    +0.205 A 
ATOM     11  N   UNL     1      21.946   6.599 -11.651  0.00  0.00    -0.130 NA
BRANCH   7  12
ATOM     12  C   UNL     1      21.018   4.391 -11.047  0.00  0.00    +0.204 C 
BRANCH  12  19
ATOM     13  C   UNL     1      19.541   4.380  -8.966  0.00  0.00    +0.071 A 
ATOM     14  C   UNL     1      18.407   3.904  -8.273  0.00  0.00    +0.053 A 
ATOM     15  C   UNL     1      17.536   3.002  -8.863  0.00  0.00    +0.124 A 
ATOM     16  F   UNL     1      16.462   2.569  -8.187  0.00  0.00    -0.205 F 
ATOM     17  C   UNL     1      17.757   2.544 -10.151  0.00  0.00    +0.039 A 
ATOM     18  C   UNL     1      18.874   2.991 -10.859  0.00  0.00    +0.009 A 
ATOM     19  C   UNL     1      19.790   3.900 -10.286  0.00  0.00    -0.010 A 
BRANCH  13  21
ATOM     20  O   UNL     1      20.017   6.589  -8.204  0.00  0.00    -0.241 OA
ATOM     21  C   UNL     1      20.434   5.391  -8.258  0.00  0.00    +0.387 C 
ATOM     22  O   UNL     1      21.531   4.968  -7.779  0.00  0.00    -0.241 OA
ENDBRANCH  13  21
ENDBRANCH  12  19
ENDBRANCH   7  12
ENDBRANCH   1  10
BRANCH   5  23
ATOM     23  C   UNL     1      22.514  11.200 -15.500  0.00  0.00    +0.010 C 
ATOM     24  C   UNL     1      21.759  10.650 -16.465  0.00  0.00    +0.028 C 
BRANCH  24  25
ATOM     25  C   UNL     1      21.653  11.143 -17.842  0.00  0.00    +0.065 A 
ATOM     26  C   UNL     1      20.483  11.670 -18.372  0.00  0.00    +0.028 A 
ATOM     27  C   UNL     1      20.494  12.140 -19.681  0.00  0.00    +0.012 A 
ATOM     28  C   UNL     1      21.676  12.083 -20.428  0.00  0.00    +0.001 A 
ATOM     29  C   UNL     1      21.733  12.545 -21.755  0.00  0.00    +0.011 A 
ATOM     30  C   UNL     1      22.928  12.476 -22.466  0.00  0.00    +0.021 A 
ATOM     31  C   UNL     1      24.058  11.948 -21.851  0.00  0.00    +0.043 A 
ATOM     32 CL   UNL     1      25.539  11.860 -22.725  0.00  0.00    -0.083 Cl
ATOM     33  C   UNL     1      24.002  11.489 -20.536  0.00  0.00    +0.048 A 
ATOM     34  C   UNL     1      22.823  11.547 -19.808  0.00  0.00    +0.073 A 
ATOM     35  N   UNL     1      22.813  11.096 -18.542  0.00  0.00    -0.247 NA
ENDBRANCH  24  25
ENDBRANCH   5  23
TORSDOF 6
ENDMDL
MODEL 3
REMARK VINA RESULT:    -9.526      5.867      7.171
REMARK INTER + INTRA:         -13.618
REMARK INTER:                 -12.771
REMARK INTRA:                  -0.846
REMARK UNBOUND:                -0.750
REMARK  Name = CHEMBL264478
REMARK  6 active torsions:
REMARK  status: ('A' for Active; 'I' for Inactive)
REMARK    1  A    between atoms: C_2  and  C_4
REMARK    2  A    between atoms: C_10  and  C_11
REMARK    3  A    between atoms: C_11  and  N_12
REMARK    4  A    between atoms: C_15  and  C_16
REMARK    5  A    between atoms: C_20  and  C_21
REMARK    6  A    between atoms: C_22  and  C_23
REMARK                            x       y       z     vdW  Elec       q    Type
REMARK                         _______ _______ _______ _____ _____    ______ ____
ROOT
ATOM      1  C   UNL     1      16.170   3.954 -14.772  0.00  0.00    +0.023 A 
ATOM      2  C   UNL     1      14.891   3.422 -14.568  0.00  0.00    +0.012 A 
ATOM      3  C   UNL     1      13.831   3.790 -15.399  0.00  0.00    +0.001 A 
ATOM      4  C   UNL     1      14.042   4.689 -16.446  0.00  0.00    +0.008 A 
ATOM      5  C   UNL     1      15.315   5.222 -16.681  0.00  0.00    -0.024 A 
ATOM      6  C   UNL     1      16.368   4.857 -15.830  0.00  0.00    +0.019 A 
ENDROOT
BRANCH   1  10
ATOM      7  N   UNL     1      18.430   2.974 -12.285  0.00  0.00    -0.158 N 
ATOM      8  N   UNL     1      19.319   3.186 -13.278  0.00  0.00    -0.045 NA
ATOM      9  N   UNL     1      18.587   3.572 -14.313  0.00  0.00    -0.108 NA
ATOM     10  C   UNL     1      17.276   3.581 -13.898  0.00  0.00    +0.205 A 
ATOM     11  N   UNL     1      17.135   3.201 -12.617  0.00  0.00    -0.130 NA
BRANCH   7  12
ATOM     12  C   UNL     1      18.836   2.535 -10.952  0.00  0.00    +0.204 C 
BRANCH  12  19
ATOM     13  C   UNL     1      18.346   3.753  -8.764  0.00  0.00    +0.071 A 
ATOM     14  C   UNL     1      18.609   4.810  -7.867  0.00  0.00    +0.053 A 
ATOM     15  C   UNL     1      19.605   5.738  -8.128  0.00  0.00    +0.124 A 
ATOM     16  F   UNL     1      19.840   6.730  -7.257  0.00  0.00    -0.205 F 
ATOM     17  C   UNL     1      20.369   5.649  -9.279  0.00  0.00    +0.039 A 
ATOM     18  C   UNL     1      20.129   4.618 -10.189  0.00  0.00    +0.009 A 
ATOM     19  C   UNL     1      19.114   3.662  -9.962  0.00  0.00    -0.010 A 
BRANCH  13  21
ATOM     20  O   UNL     1      17.502   1.960  -7.436  0.00  0.00    -0.241 OA
ATOM     21  C   UNL     1      17.252   2.759  -8.391  0.00  0.00    +0.387 C 
ATOM     22  O   UNL     1      16.175   2.796  -9.062  0.00  0.00    -0.241 OA
ENDBRANCH  13  21
ENDBRANCH  12  19
ENDBRANCH   7  12
ENDBRANCH   1  10
BRANCH   5  23
ATOM     23  C   UNL     1      15.582   6.194 -17.753  0.00  0.00    +0.010 C 
ATOM     24  C   UNL     1      15.822   5.861 -19.031  0.00  0.00    +0.028 C 
BRANCH  24  25
ATOM     25  C   UNL     1      16.096   6.810 -20.116  0.00  0.00    +0.065 A 
ATOM     26  C   UNL     1      17.225   6.735 -20.921  0.00  0.00    +0.028 A 
ATOM     27  C   UNL     1      17.378   7.665 -21.945  0.00  0.00    +0.012 A 
ATOM     28  C   UNL     1      16.397   8.641 -22.148  0.00  0.00    +0.001 A 
ATOM     29  C   UNL     1      16.511   9.601 -23.168  0.00  0.00    +0.011 A 
ATOM     30  C   UNL     1      15.512  10.555 -23.343  0.00  0.00    +0.021 A 
ATOM     31  C   UNL     1      14.405  10.545 -22.500  0.00  0.00    +0.043 A 
ATOM     32 CL   UNL     1      13.166  11.722 -22.711  0.00  0.00    -0.083 Cl
ATOM     33  C   UNL     1      14.291   9.594 -21.488  0.00  0.00    +0.048 A 
ATOM     34  C   UNL     1      15.274   8.635 -21.294  0.00  0.00    +0.073 A 
ATOM     35  N   UNL     1      15.125   7.735 -20.308  0.00  0.00    -0.247 NA
ENDBRANCH  24  25
ENDBRANCH   5  23
TORSDOF 6
ENDMDL
