MODEL 1
REMARK VINA RESULT:   -13.151      0.000      0.000
REMARK INTER + INTRA:         -18.201
REMARK INTER:                 -17.764
REMARK INTRA:                  -0.437
REMARK UNBOUND:                -0.437
REMARK  Name = CHEMBL264478
REMARK  6 active torsions:
REMARK  status: ('A' for Active; 'I' for Inactive)
REMARK    1  A    between atoms: C_2  and  C_4
REMARK    2  A    between atoms: C_10  and  C_11
REMARK    3  A    between atoms: C_11  and  N_12
REMARK    4  A    between atoms: C_15  and  C_16
REMARK    5  A    between atoms: C_20  and  C_21
REMARK    6  A    between atoms: C_22  and  C_23
REMARK                            x       y       z     vdW  Elec       q    Type
REMARK                         _______ _______ _______ _____ _____    ______ ____
ROOT
ATOM      1  C   UNL     1      -4.766 -13.962 -52.889  0.00  0.00    +0.023 A 
ATOM      2  C   UNL     1      -6.068 -13.992 -52.374  0.00  0.00    +0.012 A 
ATOM      3  C   UNL     1      -7.130 -14.441 -53.163  0.00  0.00    +0.001 A 
ATOM      4  C   UNL     1      -6.899 -14.869 -54.471  0.00  0.00    +0.008 A 
ATOM      5  C   UNL     1      -5.604 -14.864 -55.003  0.00  0.00    -0.024 A 
ATOM      6  C   UNL     1      -4.549 -14.396 -54.207  0.00  0.00    +0.019 A 
ENDROOT
BRANCH   1  10
ATOM      7  N   UNL     1      -1.894 -13.327 -50.993  0.00  0.00    -0.158 N 
ATOM      8  N   UNL     1      -2.459 -12.105 -50.898  0.00  0.00    -0.045 NA
ATOM      9  N   UNL     1      -3.586 -12.197 -51.589  0.00  0.00    -0.108 NA
ATOM     10  C   UNL     1      -3.658 -13.483 -52.073  0.00  0.00    +0.205 A 
ATOM     11  N   UNL     1      -2.597 -14.229 -51.720  0.00  0.00    -0.130 NA
BRANCH   7  12
ATOM     12  C   UNL     1      -0.620 -13.651 -50.356  0.00  0.00    +0.204 C 
BRANCH  12  19
ATOM     13  C   UNL     1       0.843 -12.828 -48.434  0.00  0.00    +0.071 A 
ATOM     14  C   UNL     1       0.971 -12.350 -47.112  0.00  0.00    +0.053 A 
ATOM     15  C   UNL     1      -0.144 -12.149 -46.313  0.00  0.00    +0.124 A 
ATOM     16  F   UNL     1       0.004 -11.689 -45.063  0.00  0.00    -0.205 F 
ATOM     17  C   UNL     1      -1.415 -12.411 -46.795  0.00  0.00    +0.039 A 
ATOM     18  C   UNL     1      -1.574 -12.891 -48.096  0.00  0.00    +0.009 A 
ATOM     19  C   UNL     1      -0.460 -13.120 -48.935  0.00  0.00    -0.010 A 
BRANCH  13  21
ATOM     20  O   UNL     1       2.312 -12.161 -50.191  0.00  0.00    -0.241 OA
ATOM     21  C   UNL     1       2.115 -12.997 -49.255  0.00  0.00    +0.387 C 
ATOM     22  O   UNL     1       2.883 -13.961 -48.952  0.00  0.00    -0.241 OA
ENDBRANCH  13  21
ENDBRANCH  12  19
ENDBRANCH   7  12
ENDBRANCH   1  10
BRANCH   5  23
ATOM     23  C   UNL     1      -5.314 -15.277 -56.385  0.00  0.00    +0.010 C 
ATOM     24  C   UNL     1      -4.105 -15.673 -56.816  0.00  0.00    +0.028 C 
BRANCH  24  25
ATOM     25  C   UNL     1      -3.788 -16.083 -58.188  0.00  0.00    +0.065 A 
ATOM     26  C   UNL     1      -3.982 -15.260 -59.290  0.00  0.00    +0.028 A 
ATOM     27  C   UNL     1      -3.620 -15.731 -60.548  0.00  0.00    +0.012 A 
ATOM     28  C   UNL     1      -3.063 -17.007 -60.677  0.00  0.00    +0.001 A 
ATOM     29  C   UNL     1      -2.684 -17.525 -61.927  0.00  0.00    +0.011 A 
ATOM     30  C   UNL     1      -2.129 -18.798 -62.016  0.00  0.00    +0.021 A 
ATOM     31  C   UNL     1      -1.955 -19.549 -60.858  0.00  0.00    +0.043 A 
ATOM     32 CL   UNL     1      -1.268 -21.125 -60.960  0.00  0.00    -0.083 Cl
ATOM     33  C   UNL     1      -2.330 -19.037 -59.617  0.00  0.00    +0.048 A 
ATOM     34  C   UNL     1      -2.886 -17.771 -59.504  0.00  0.00    +0.073 A 
ATOM     35  N   UNL     1      -3.233 -17.315 -58.289  0.00  0.00    -0.247 NA
ENDBRANCH  24  25
ENDBRANCH   5  23
TORSDOF 6
ENDMDL
MODEL 2
REMARK VINA RESULT:   -11.634      5.149     11.013
REMARK INTER + INTRA:         -16.153
REMARK INTER:                 -15.133
REMARK INTRA:                  -1.019
REMARK UNBOUND:                -0.437
REMARK  Name = CHEMBL264478
REMARK  6 active torsions:
REMARK  status: ('A' for Active; 'I' for Inactive)
REMARK    1  A    between atoms: C_2  and  C_4
REMARK    2  A    between atoms: C_10  and  C_11
REMARK    3  A    between atoms: C_11  and  N_12
REMARK    4  A    between atoms: C_15  and  C_16
REMARK    5  A    between atoms: C_20  and  C_21
REMARK    6  A    between atoms: C_22  and  C_23
REMARK                            x       y       z     vdW  Elec       q    Type
REMARK                         _______ _______ _______ _____ _____    ______ ____
ROOT
ATOM      1  C   UNL     1      -5.162 -15.057 -56.086  0.00  0.00    +0.023 A 
ATOM      2  C   UNL     1      -6.548 -15.254 -56.116  0.00  0.00    +0.012 A 
ATOM      3  C   UNL     1      -7.329 -14.959 -54.997  0.00  0.00    +0.001 A 
ATOM      4  C   UNL     1      -6.733 -14.458 -53.839  0.00  0.00    +0.008 A 
ATOM      5  C   UNL     1      -5.351 -14.236 -53.789  0.00  0.00    -0.024 A 
ATOM      6  C   UNL     1      -4.576 -14.551 -54.914  0.00  0.00    +0.019 A 
ENDROOT
BRANCH   1  10
ATOM      7  N   UNL     1      -2.839 -16.049 -58.509  0.00  0.00    -0.158 N 
ATOM      8  N   UNL     1      -3.752 -15.495 -59.335  0.00  0.00    -0.045 NA
ATOM      9  N   UNL     1      -4.718 -15.066 -58.536  0.00  0.00    -0.108 NA
ATOM     10  C   UNL     1      -4.343 -15.375 -57.248  0.00  0.00    +0.205 A 
ATOM     11  N   UNL     1      -3.158 -16.006 -57.192  0.00  0.00    -0.130 NA
BRANCH   7  12
ATOM     12  C   UNL     1      -1.600 -16.645 -59.000  0.00  0.00    +0.204 C 
BRANCH  12  19
ATOM     13  C   UNL     1      -2.028 -19.104 -59.529  0.00  0.00    +0.071 A 
ATOM     14  C   UNL     1      -2.186 -20.144 -60.471  0.00  0.00    +0.053 A 
ATOM     15  C   UNL     1      -2.126 -19.890 -61.832  0.00  0.00    +0.124 A 
ATOM     16  F   UNL     1      -2.284 -20.893 -62.707  0.00  0.00    -0.205 F 
ATOM     17  C   UNL     1      -1.910 -18.606 -62.303  0.00  0.00    +0.039 A 
ATOM     18  C   UNL     1      -1.745 -17.557 -61.396  0.00  0.00    +0.009 A 
ATOM     19  C   UNL     1      -1.787 -17.780 -60.002  0.00  0.00    -0.010 A 
BRANCH  13  21
ATOM     20  O   UNL     1      -1.085 -19.900 -57.488  0.00  0.00    -0.241 OA
ATOM     21  C   UNL     1      -2.135 -19.461 -58.052  0.00  0.00    +0.387 C 
ATOM     22  O   UNL     1      -3.263 -19.302 -57.491  0.00  0.00    -0.241 OA
ENDBRANCH  13  21
ENDBRANCH  12  19
ENDBRANCH   7  12
ENDBRANCH   1  10
BRANCH   5  23
ATOM     23  C   UNL     1      -4.672 -13.738 -52.583  0.00  0.00    +0.010 C 
ATOM     24  C   UNL     1      -3.361 -13.897 -52.336  0.00  0.00    +0.028 C 
BRANCH  24  25
ATOM     25  C   UNL     1      -2.661 -13.416 -51.139  0.00  0.00    +0.065 A 
ATOM     26  C   UNL     1      -3.281 -12.668 -50.147  0.00  0.00    +0.028 A 
ATOM     27  C   UNL     1      -2.537 -12.286 -49.035  0.00  0.00    +0.012 A 
ATOM     28  C   UNL     1      -1.195 -12.669 -48.933  0.00  0.00    +0.001 A 
ATOM     29  C   UNL     1      -0.405 -12.305 -47.830  0.00  0.00    +0.011 A 
ATOM     30  C   UNL     1       0.926 -12.708 -47.761  0.00  0.00    +0.021 A 
ATOM     31  C   UNL     1       1.461 -13.471 -48.794  0.00  0.00    +0.043 A 
ATOM     32 CL   UNL     1       3.107 -13.973 -48.716  0.00  0.00    -0.083 Cl
ATOM     33  C   UNL     1       0.678 -13.832 -49.889  0.00  0.00    +0.048 A 
ATOM     34  C   UNL     1      -0.649 -13.442 -49.979  0.00  0.00    +0.073 A 
ATOM     35  N   UNL     1      -1.369 -13.813 -51.052  0.00  0.00    -0.247 NA
ENDBRANCH  24  25
ENDBRANCH   5  23
TORSDOF 6
ENDMDL
MODEL 3
REMARK VINA RESULT:   -11.044      4.717      5.459
REMARK INTER + INTRA:         -15.355
REMARK INTER:                 -14.843
REMARK INTRA:                  -0.513
REMARK UNBOUND:                -0.437
REMARK  Name = CHEMBL264478
REMARK  6 active torsions:
REMARK  status: ('A' for Active; 'I' for Inactive)
REMARK    1  A    between atoms: C_2  and  C_4
REMARK    2  A    between atoms: C_10  and  C_11
REMARK    3  A    between atoms: C_11  and  N_12
REMARK    4  A    between atoms: C_15  and  C_16
REMARK    5  A    between atoms: C_20  and  C_21
REMARK    6  A    between atoms: C_22  and  C_23
REMARK                            x       y       z     vdW  Elec       q    Type
REMARK                         _______ _______ _______ _____ _____    ______ ____
ROOT
ATOM      1  C   UNL     1      -6.664 -13.242 -52.373  0.00  0.00    +0.023 A 
ATOM      2  C   UNL     1      -7.688 -13.073 -51.433  0.00  0.00    +0.012 A 
ATOM      3  C   UNL     1      -9.005 -13.407 -51.754  0.00  0.00    +0.001 A 
ATOM      4  C   UNL     1      -9.310 -13.919 -53.017  0.00  0.00    +0.008 A 
ATOM      5  C   UNL     1      -8.301 -14.113 -53.968  0.00  0.00    -0.024 A 
ATOM      6  C   UNL     1      -6.985 -13.759 -53.639  0.00  0.00    +0.019 A 
ENDROOT
BRANCH   1  10
ATOM      7  N   UNL     1      -3.286 -12.930 -51.513  0.00  0.00    -0.158 N 
ATOM      8  N   UNL     1      -3.551 -11.623 -51.722  0.00  0.00    -0.045 NA
ATOM      9  N   UNL     1      -4.830 -11.587 -52.066  0.00  0.00    -0.108 NA
ATOM     10  C   UNL     1      -5.290 -12.883 -52.045  0.00  0.00    +0.205 A 
ATOM     11  N   UNL     1      -4.336 -13.766 -51.704  0.00  0.00    -0.130 NA
BRANCH   7  12
ATOM     12  C   UNL     1      -1.965 -13.405 -51.106  0.00  0.00    +0.204 C 
BRANCH  12  19
ATOM     13  C   UNL     1      -0.173 -13.021 -49.331  0.00  0.00    +0.071 A 
ATOM     14  C   UNL     1       0.187 -12.676 -48.010  0.00  0.00    +0.053 A 
ATOM     15  C   UNL     1      -0.775 -12.326 -47.076  0.00  0.00    +0.124 A 
ATOM     16  F   UNL     1      -0.407 -11.997 -45.829  0.00  0.00    -0.205 F 
ATOM     17  C   UNL     1      -2.117 -12.306 -47.416  0.00  0.00    +0.039 A 
ATOM     18  C   UNL     1      -2.505 -12.647 -48.713  0.00  0.00    +0.009 A 
ATOM     19  C   UNL     1      -1.554 -13.022 -49.688  0.00  0.00    -0.010 A 
BRANCH  13  21
ATOM     20  O   UNL     1       0.903 -14.514 -50.848  0.00  0.00    -0.241 OA
ATOM     21  C   UNL     1       0.946 -13.367 -50.305  0.00  0.00    +0.387 C 
ATOM     22  O   UNL     1       1.843 -12.490 -50.502  0.00  0.00    -0.241 OA
ENDBRANCH  13  21
ENDBRANCH  12  19
ENDBRANCH   7  12
ENDBRANCH   1  10
BRANCH   5  23
ATOM     23  C   UNL     1      -8.576 -14.622 -55.321  0.00  0.00    +0.010 C 
ATOM     24  C   UNL     1      -9.801 -14.934 -55.775  0.00  0.00    +0.028 C 
BRANCH  24  25
ATOM     25  C   UNL     1     -10.101 -15.448 -57.116  0.00  0.00    +0.065 A 
ATOM     26  C   UNL     1      -9.281 -15.226 -58.215  0.00  0.00    +0.028 A 
ATOM     27  C   UNL     1      -9.638 -15.784 -59.439  0.00  0.00    +0.012 A 
ATOM     28  C   UNL     1     -10.799 -16.558 -59.535  0.00  0.00    +0.001 A 
ATOM     29  C   UNL     1     -11.200 -17.139 -60.751  0.00  0.00    +0.011 A 
ATOM     30  C   UNL     1     -12.360 -17.907 -60.808  0.00  0.00    +0.021 A 
ATOM     31  C   UNL     1     -13.113 -18.091 -59.654  0.00  0.00    +0.043 A 
ATOM     32 CL   UNL     1     -14.549 -19.040 -59.717  0.00  0.00    -0.083 Cl
ATOM     33  C   UNL     1     -12.717 -17.516 -58.448  0.00  0.00    +0.048 A 
ATOM     34  C   UNL     1     -11.566 -16.746 -58.366  0.00  0.00    +0.073 A 
ATOM     35  N   UNL     1     -11.219 -16.210 -57.184  0.00  0.00    -0.247 NA
ENDBRANCH  24  25
ENDBRANCH   5  23
TORSDOF 6
ENDMDL
