MODEL 1
REMARK VINA RESULT:   -12.476      0.000      0.000
REMARK INTER + INTRA:         -18.010
REMARK INTER:                 -16.852
REMARK INTRA:                  -1.158
REMARK UNBOUND:                -1.158
REMARK  Name = CHEMBL264478
REMARK  6 active torsions:
REMARK  status: ('A' for Active; 'I' for Inactive)
REMARK    1  A    between atoms: C_2  and  C_4
REMARK    2  A    between atoms: C_10  and  C_11
REMARK    3  A    between atoms: C_11  and  N_12
REMARK    4  A    between atoms: C_15  and  C_16
REMARK    5  A    between atoms: C_20  and  C_21
REMARK    6  A    between atoms: C_22  and  C_23
REMARK                            x       y       z     vdW  Elec       q    Type
REMARK                         _______ _______ _______ _____ _____    ______ ____
ROOT
ATOM      1  C   UNL     1     -33.152   2.985  10.118  0.00  0.00    +0.023 A 
ATOM      2  C   UNL     1     -34.411   2.821  10.711  0.00  0.00    +0.012 A 
ATOM      3  C   UNL     1     -35.310   3.887  10.767  0.00  0.00    +0.001 A 
ATOM      4  C   UNL     1     -34.963   5.126  10.225  0.00  0.00    +0.008 A 
ATOM      5  C   UNL     1     -33.718   5.310   9.611  0.00  0.00    -0.024 A 
ATOM      6  C   UNL     1     -32.817   4.236   9.575  0.00  0.00    +0.019 A 
ENDROOT
BRANCH   1  10
ATOM      7  N   UNL     1     -30.510   0.691  10.206  0.00  0.00    -0.158 N 
ATOM      8  N   UNL     1     -31.464  -0.135   9.726  0.00  0.00    -0.045 NA
ATOM      9  N   UNL     1     -32.552   0.616   9.640  0.00  0.00    -0.108 NA
ATOM     10  C   UNL     1     -32.206   1.877  10.069  0.00  0.00    +0.205 A 
ATOM     11  N   UNL     1     -30.919   1.962  10.442  0.00  0.00    -0.130 NA
BRANCH   7  12
ATOM     12  C   UNL     1     -29.140   0.247  10.446  0.00  0.00    +0.204 C 
BRANCH  12  19
ATOM     13  C   UNL     1     -28.007   1.652  12.250  0.00  0.00    +0.071 A 
ATOM     14  C   UNL     1     -27.117   2.684  12.618  0.00  0.00    +0.053 A 
ATOM     15  C   UNL     1     -26.398   3.382  11.661  0.00  0.00    +0.124 A 
ATOM     16  F   UNL     1     -25.554   4.354  12.036  0.00  0.00    -0.205 F 
ATOM     17  C   UNL     1     -26.536   3.084  10.316  0.00  0.00    +0.039 A 
ATOM     18  C   UNL     1     -27.413   2.073   9.920  0.00  0.00    +0.009 A 
ATOM     19  C   UNL     1     -28.172   1.349  10.866  0.00  0.00    -0.010 A 
BRANCH  13  21
ATOM     20  O   UNL     1     -28.190  -0.138  13.815  0.00  0.00    -0.241 OA
ATOM     21  C   UNL     1     -28.739   0.914  13.364  0.00  0.00    +0.387 C 
ATOM     22  O   UNL     1     -29.845   1.397  13.758  0.00  0.00    -0.241 OA
ENDBRANCH  13  21
ENDBRANCH  12  19
ENDBRANCH   7  12
ENDBRANCH   1  10
BRANCH   5  23
ATOM     23  C   UNL     1     -33.295   6.603   9.052  0.00  0.00    +0.010 C 
ATOM     24  C   UNL     1     -32.156   6.792   8.366  0.00  0.00    +0.028 C 
BRANCH  24  25
ATOM     25  C   UNL     1     -31.707   8.071   7.804  0.00  0.00    +0.065 A 
ATOM     26  C   UNL     1     -32.564   9.138   7.571  0.00  0.00    +0.028 A 
ATOM     27  C   UNL     1     -32.034  10.321   7.064  0.00  0.00    +0.012 A 
ATOM     28  C   UNL     1     -30.661  10.414   6.812  0.00  0.00    +0.001 A 
ATOM     29  C   UNL     1     -30.083  11.588   6.298  0.00  0.00    +0.011 A 
ATOM     30  C   UNL     1     -28.712  11.645   6.064  0.00  0.00    +0.021 A 
ATOM     31  C   UNL     1     -27.925  10.532   6.342  0.00  0.00    +0.043 A 
ATOM     32 CL   UNL     1     -26.229  10.596   6.055  0.00  0.00    -0.083 Cl
ATOM     33  C   UNL     1     -28.498   9.368   6.852  0.00  0.00    +0.048 A 
ATOM     34  C   UNL     1     -29.861   9.287   7.092  0.00  0.00    +0.073 A 
ATOM     35  N   UNL     1     -30.372   8.146   7.585  0.00  0.00    -0.247 NA
ENDBRANCH  24  25
ENDBRANCH   5  23
TORSDOF 6
ENDMDL
MODEL 2
REMARK VINA RESULT:   -12.361      1.904      2.620
REMARK INTER + INTRA:         -17.854
REMARK INTER:                 -16.930
REMARK INTRA:                  -0.925
REMARK UNBOUND:                -1.158
REMARK  Name = CHEMBL264478
REMARK  6 active torsions:
REMARK  status: ('A' for Active; 'I' for Inactive)
REMARK    1  A    between atoms: C_2  and  C_4
REMARK    2  A    between atoms: C_10  and  C_11
REMARK    3  A    between atoms: C_11  and  N_12
REMARK    4  A    between atoms: C_15  and  C_16
REMARK    5  A    between atoms: C_20  and  C_21
REMARK    6  A    between atoms: C_22  and  C_23
REMARK                            x       y       z     vdW  Elec       q    Type
REMARK                         _______ _______ _______ _____ _____    ______ ____
ROOT
ATOM      1  C   UNL     1     -34.233   3.640   9.045  0.00  0.00    +0.023 A 
ATOM      2  C   UNL     1     -35.628   3.629   9.166  0.00  0.00    +0.012 A 
ATOM      3  C   UNL     1     -36.381   4.736   8.768  0.00  0.00    +0.001 A 
ATOM      4  C   UNL     1     -35.746   5.861   8.238  0.00  0.00    +0.008 A 
ATOM      5  C   UNL     1     -34.354   5.889   8.091  0.00  0.00    -0.024 A 
ATOM      6  C   UNL     1     -33.608   4.778   8.510  0.00  0.00    +0.019 A 
ENDROOT
BRANCH   1  10
ATOM      7  N   UNL     1     -31.923   1.251  10.143  0.00  0.00    -0.158 N 
ATOM      8  N   UNL     1     -32.975   0.426   9.952  0.00  0.00    -0.045 NA
ATOM      9  N   UNL     1     -33.951   1.213   9.525  0.00  0.00    -0.108 NA
ATOM     10  C   UNL     1     -33.444   2.491   9.471  0.00  0.00    +0.205 A 
ATOM     11  N   UNL     1     -32.160   2.556   9.862  0.00  0.00    -0.130 NA
BRANCH   7  12
ATOM     12  C   UNL     1     -30.627   0.769  10.615  0.00  0.00    +0.204 C 
BRANCH  12  19
ATOM     13  C   UNL     1     -29.161   1.509  12.568  0.00  0.00    +0.071 A 
ATOM     14  C   UNL     1     -28.951   1.645  13.958  0.00  0.00    +0.053 A 
ATOM     15  C   UNL     1     -29.918   1.249  14.868  0.00  0.00    +0.124 A 
ATOM     16  F   UNL     1     -29.697   1.394  16.183  0.00  0.00    -0.205 F 
ATOM     17  C   UNL     1     -31.118   0.711  14.436  0.00  0.00    +0.039 A 
ATOM     18  C   UNL     1     -31.353   0.558  13.069  0.00  0.00    +0.009 A 
ATOM     19  C   UNL     1     -30.386   0.938  12.112  0.00  0.00    -0.010 A 
BRANCH  13  21
ATOM     20  O   UNL     1     -28.158   3.179  11.193  0.00  0.00    -0.241 OA
ATOM     21  C   UNL     1     -28.061   1.992  11.632  0.00  0.00    +0.387 C 
ATOM     22  O   UNL     1     -27.129   1.175  11.353  0.00  0.00    -0.241 OA
ENDBRANCH  13  21
ENDBRANCH  12  19
ENDBRANCH   7  12
ENDBRANCH   1  10
BRANCH   5  23
ATOM     23  C   UNL     1     -33.637   7.062   7.567  0.00  0.00    +0.010 C 
ATOM     24  C   UNL     1     -32.827   7.841   8.302  0.00  0.00    +0.028 C 
BRANCH  24  25
ATOM     25  C   UNL     1     -32.106   9.019   7.806  0.00  0.00    +0.065 A 
ATOM     26  C   UNL     1     -32.632  10.303   7.846  0.00  0.00    +0.028 A 
ATOM     27  C   UNL     1     -31.855  11.359   7.379  0.00  0.00    +0.012 A 
ATOM     28  C   UNL     1     -30.567  11.109   6.893  0.00  0.00    +0.001 A 
ATOM     29  C   UNL     1     -29.748  12.144   6.409  0.00  0.00    +0.011 A 
ATOM     30  C   UNL     1     -28.470  11.859   5.936  0.00  0.00    +0.021 A 
ATOM     31  C   UNL     1     -28.016  10.544   5.948  0.00  0.00    +0.043 A 
ATOM     32 CL   UNL     1     -26.437  10.183   5.365  0.00  0.00    -0.083 Cl
ATOM     33  C   UNL     1     -28.828   9.517   6.427  0.00  0.00    +0.048 A 
ATOM     34  C   UNL     1     -30.105   9.777   6.902  0.00  0.00    +0.073 A 
ATOM     35  N   UNL     1     -30.855   8.758   7.356  0.00  0.00    -0.247 NA
ENDBRANCH  24  25
ENDBRANCH   5  23
TORSDOF 6
ENDMDL
MODEL 3
REMARK VINA RESULT:   -12.214      2.111      2.634
REMARK INTER + INTRA:         -17.656
REMARK INTER:                 -16.582
REMARK INTRA:                  -1.074
REMARK UNBOUND:                -1.158
REMARK  Name = CHEMBL264478
REMARK  6 active torsions:
REMARK  status: ('A' for Active; 'I' for Inactive)
REMARK    1  A    between atoms: C_2  and  C_4
REMARK    2  A    between atoms: C_10  and  C_11
REMARK    3  A    between atoms: C_11  and  N_12
REMARK    4  A    between atoms: C_15  and  C_16
REMARK    5  A    between atoms: C_20  and  C_21
REMARK    6  A    between atoms: C_22  and  C_23
REMARK                            x       y       z     vdW  Elec       q    Type
REMARK                         _______ _______ _______ _____ _____    ______ ____
ROOT
ATOM      1  C   UNL     1     -31.515   1.860  10.342  0.00  0.00    +0.023 A 
ATOM      2  C   UNL     1     -32.710   1.145  10.500  0.00  0.00    +0.012 A 
ATOM      3  C   UNL     1     -33.924   1.698  10.089  0.00  0.00    +0.001 A 
ATOM      4  C   UNL     1     -33.956   2.967   9.510  0.00  0.00    +0.008 A 
ATOM      5  C   UNL     1     -32.774   3.695   9.326  0.00  0.00    -0.024 A 
ATOM      6  C   UNL     1     -31.563   3.136   9.757  0.00  0.00    +0.019 A 
ENDROOT
BRANCH   1  10
ATOM      7  N   UNL     1     -28.448   0.929  11.748  0.00  0.00    -0.158 N 
ATOM      8  N   UNL     1     -28.583  -0.100  10.885  0.00  0.00    -0.045 NA
ATOM      9  N   UNL     1     -29.733   0.123  10.266  0.00  0.00    -0.108 NA
ATOM     10  C   UNL     1     -30.248   1.291  10.781  0.00  0.00    +0.205 A 
ATOM     11  N   UNL     1     -29.462   1.829  11.729  0.00  0.00    -0.130 NA
BRANCH   7  12
ATOM     12  C   UNL     1     -27.293   1.063  12.631  0.00  0.00    +0.204 C 
BRANCH  12  19
ATOM     13  C   UNL     1     -25.509   2.500  11.507  0.00  0.00    +0.071 A 
ATOM     14  C   UNL     1     -24.271   2.613  10.837  0.00  0.00    +0.053 A 
ATOM     15  C   UNL     1     -23.488   1.496  10.592  0.00  0.00    +0.124 A 
ATOM     16  F   UNL     1     -22.314   1.630   9.958  0.00  0.00    -0.205 F 
ATOM     17  C   UNL     1     -23.900   0.240  11.002  0.00  0.00    +0.039 A 
ATOM     18  C   UNL     1     -25.121   0.095  11.662  0.00  0.00    +0.009 A 
ATOM     19  C   UNL     1     -25.953   1.208  11.917  0.00  0.00    -0.010 A 
BRANCH  13  21
ATOM     20  O   UNL     1     -26.264   4.252  12.939  0.00  0.00    -0.241 OA
ATOM     21  C   UNL     1     -26.298   3.778  11.761  0.00  0.00    +0.387 C 
ATOM     22  O   UNL     1     -26.937   4.276  10.784  0.00  0.00    -0.241 OA
ENDBRANCH  13  21
ENDBRANCH  12  19
ENDBRANCH   7  12
ENDBRANCH   1  10
BRANCH   5  23
ATOM     23  C   UNL     1     -32.759   5.048   8.749  0.00  0.00    +0.010 C 
ATOM     24  C   UNL     1     -31.764   5.932   8.925  0.00  0.00    +0.028 C 
BRANCH  24  25
ATOM     25  C   UNL     1     -31.727   7.288   8.367  0.00  0.00    +0.065 A 
ATOM     26  C   UNL     1     -32.829   8.133   8.353  0.00  0.00    +0.028 A 
ATOM     27  C   UNL     1     -32.683   9.414   7.828  0.00  0.00    +0.012 A 
ATOM     28  C   UNL     1     -31.438   9.825   7.340  0.00  0.00    +0.001 A 
ATOM     29  C   UNL     1     -31.245  11.108   6.799  0.00  0.00    +0.011 A 
ATOM     30  C   UNL     1     -29.991  11.484   6.326  0.00  0.00    +0.021 A 
ATOM     31  C   UNL     1     -28.937  10.579   6.394  0.00  0.00    +0.043 A 
ATOM     32 CL   UNL     1     -27.383  11.037   5.811  0.00  0.00    -0.083 Cl
ATOM     33  C   UNL     1     -29.128   9.306   6.929  0.00  0.00    +0.048 A 
ATOM     34  C   UNL     1     -30.368   8.909   7.406  0.00  0.00    +0.073 A 
ATOM     35  N   UNL     1     -30.509   7.673   7.915  0.00  0.00    -0.247 NA
ENDBRANCH  24  25
ENDBRANCH   5  23
TORSDOF 6
ENDMDL
