MODEL 1
REMARK VINA RESULT:   -12.701      0.000      0.000
REMARK INTER + INTRA:         -18.109
REMARK INTER:                 -17.155
REMARK INTRA:                  -0.954
REMARK UNBOUND:                -0.954
REMARK  Name = CHEMBL264478
REMARK  6 active torsions:
REMARK  status: ('A' for Active; 'I' for Inactive)
REMARK    1  A    between atoms: C_2  and  C_4
REMARK    2  A    between atoms: C_10  and  C_11
REMARK    3  A    between atoms: C_11  and  N_12
REMARK    4  A    between atoms: C_15  and  C_16
REMARK    5  A    between atoms: C_20  and  C_21
REMARK    6  A    between atoms: C_22  and  C_23
REMARK                            x       y       z     vdW  Elec       q    Type
REMARK                         _______ _______ _______ _____ _____    ______ ____
ROOT
ATOM      1  C   UNL     1     -33.724   3.739   8.937  0.00  0.00    +0.023 A 
ATOM      2  C   UNL     1     -35.113   3.768   9.115  0.00  0.00    +0.012 A 
ATOM      3  C   UNL     1     -35.853   4.885   8.721  0.00  0.00    +0.001 A 
ATOM      4  C   UNL     1     -35.212   5.980   8.140  0.00  0.00    +0.008 A 
ATOM      5  C   UNL     1     -33.827   5.968   7.936  0.00  0.00    -0.024 A 
ATOM      6  C   UNL     1     -33.093   4.848   8.350  0.00  0.00    +0.019 A 
ENDROOT
BRANCH   1  10
ATOM      7  N   UNL     1     -31.442   1.320  10.030  0.00  0.00    -0.158 N 
ATOM      8  N   UNL     1     -32.499   0.507   9.826  0.00  0.00    -0.045 NA
ATOM      9  N   UNL     1     -33.466   1.306   9.400  0.00  0.00    -0.108 NA
ATOM     10  C   UNL     1     -32.947   2.580   9.359  0.00  0.00    +0.205 A 
ATOM     11  N   UNL     1     -31.665   2.629   9.758  0.00  0.00    -0.130 NA
BRANCH   7  12
ATOM     12  C   UNL     1     -30.153   0.824  10.504  0.00  0.00    +0.204 C 
BRANCH  12  19
ATOM     13  C   UNL     1     -28.684   1.488  12.482  0.00  0.00    +0.071 A 
ATOM     14  C   UNL     1     -28.485   1.601  13.875  0.00  0.00    +0.053 A 
ATOM     15  C   UNL     1     -29.476   1.232  14.770  0.00  0.00    +0.124 A 
ATOM     16  F   UNL     1     -29.265   1.354  16.089  0.00  0.00    -0.205 F 
ATOM     17  C   UNL     1     -30.690   0.743  14.319  0.00  0.00    +0.039 A 
ATOM     18  C   UNL     1     -30.914   0.614  12.948  0.00  0.00    +0.009 A 
ATOM     19  C   UNL     1     -29.923   0.967  12.006  0.00  0.00    -0.010 A 
BRANCH  13  21
ATOM     20  O   UNL     1     -26.660   1.084  11.286  0.00  0.00    -0.241 OA
ATOM     21  C   UNL     1     -27.555   1.940  11.564  0.00  0.00    +0.387 C 
ATOM     22  O   UNL     1     -27.585   3.139  11.148  0.00  0.00    -0.241 OA
ENDBRANCH  13  21
ENDBRANCH  12  19
ENDBRANCH   7  12
ENDBRANCH   1  10
BRANCH   5  23
ATOM     23  C   UNL     1     -33.102   7.109   7.355  0.00  0.00    +0.010 C 
ATOM     24  C   UNL     1     -32.009   7.665   7.901  0.00  0.00    +0.028 C 
BRANCH  24  25
ATOM     25  C   UNL     1     -31.272   8.806   7.346  0.00  0.00    +0.065 A 
ATOM     26  C   UNL     1     -31.878  10.009   7.011  0.00  0.00    +0.028 A 
ATOM     27  C   UNL     1     -31.085  11.042   6.520  0.00  0.00    +0.012 A 
ATOM     28  C   UNL     1     -29.705  10.855   6.386  0.00  0.00    +0.001 A 
ATOM     29  C   UNL     1     -28.867  11.869   5.894  0.00  0.00    +0.011 A 
ATOM     30  C   UNL     1     -27.497  11.647   5.778  0.00  0.00    +0.021 A 
ATOM     31  C   UNL     1     -26.972  10.415   6.154  0.00  0.00    +0.043 A 
ATOM     32 CL   UNL     1     -25.279  10.134   6.014  0.00  0.00    -0.083 Cl
ATOM     33  C   UNL     1     -27.803   9.408   6.642  0.00  0.00    +0.048 A 
ATOM     34  C   UNL     1     -29.170   9.606   6.765  0.00  0.00    +0.073 A 
ATOM     35  N   UNL     1     -29.936   8.609   7.242  0.00  0.00    -0.247 NA
ENDBRANCH  24  25
ENDBRANCH   5  23
TORSDOF 6
ENDMDL
MODEL 2
REMARK VINA RESULT:   -12.495      2.109      2.896
REMARK INTER + INTRA:         -17.831
REMARK INTER:                 -16.765
REMARK INTRA:                  -1.065
REMARK UNBOUND:                -0.954
REMARK  Name = CHEMBL264478
REMARK  6 active torsions:
REMARK  status: ('A' for Active; 'I' for Inactive)
REMARK    1  A    between atoms: C_2  and  C_4
REMARK    2  A    between atoms: C_10  and  C_11
REMARK    3  A    between atoms: C_11  and  N_12
REMARK    4  A    between atoms: C_15  and  C_16
REMARK    5  A    between atoms: C_20  and  C_21
REMARK    6  A    between atoms: C_22  and  C_23
REMARK                            x       y       z     vdW  Elec       q    Type
REMARK                         _______ _______ _______ _____ _____    ______ ____
ROOT
ATOM      1  C   UNL     1     -32.064   2.545   9.780  0.00  0.00    +0.023 A 
ATOM      2  C   UNL     1     -33.430   2.485  10.082  0.00  0.00    +0.012 A 
ATOM      3  C   UNL     1     -34.227   3.628   9.988  0.00  0.00    +0.001 A 
ATOM      4  C   UNL     1     -33.666   4.840   9.584  0.00  0.00    +0.008 A 
ATOM      5  C   UNL     1     -32.307   4.923   9.260  0.00  0.00    -0.024 A 
ATOM      6  C   UNL     1     -31.514   3.772   9.374  0.00  0.00    +0.019 A 
ENDROOT
BRANCH   1  10
ATOM      7  N   UNL     1     -29.696   0.024  10.315  0.00  0.00    -0.158 N 
ATOM      8  N   UNL     1     -30.618  -0.715   9.663  0.00  0.00    -0.045 NA
ATOM      9  N   UNL     1     -31.602   0.130   9.390  0.00  0.00    -0.108 NA
ATOM     10  C   UNL     1     -31.227   1.357   9.889  0.00  0.00    +0.205 A 
ATOM     11  N   UNL     1     -30.025   1.327  10.489  0.00  0.00    -0.130 NA
BRANCH   7  12
ATOM     12  C   UNL     1     -28.437  -0.541  10.793  0.00  0.00    +0.204 C 
BRANCH  12  19
ATOM     13  C   UNL     1     -26.876   1.094  11.977  0.00  0.00    +0.071 A 
ATOM     14  C   UNL     1     -25.787   1.991  11.940  0.00  0.00    +0.053 A 
ATOM     15  C   UNL     1     -25.082   2.209  10.767  0.00  0.00    +0.124 A 
ATOM     16  F   UNL     1     -24.047   3.063  10.758  0.00  0.00    -0.205 F 
ATOM     17  C   UNL     1     -25.428   1.550   9.600  0.00  0.00    +0.039 A 
ATOM     18  C   UNL     1     -26.504   0.661   9.604  0.00  0.00    +0.009 A 
ATOM     19  C   UNL     1     -27.254   0.423  10.777  0.00  0.00    -0.010 A 
BRANCH  13  21
ATOM     20  O   UNL     1     -27.120  -0.014  14.075  0.00  0.00    -0.241 OA
ATOM     21  C   UNL     1     -27.582   0.889  13.312  0.00  0.00    +0.387 C 
ATOM     22  O   UNL     1     -28.583   1.628  13.563  0.00  0.00    -0.241 OA
ENDBRANCH  13  21
ENDBRANCH  12  19
ENDBRANCH   7  12
ENDBRANCH   1  10
BRANCH   5  23
ATOM     23  C   UNL     1     -31.664   6.184   8.859  0.00  0.00    +0.010 C 
ATOM     24  C   UNL     1     -32.144   7.009   7.914  0.00  0.00    +0.028 C 
BRANCH  24  25
ATOM     25  C   UNL     1     -31.520   8.267   7.491  0.00  0.00    +0.065 A 
ATOM     26  C   UNL     1     -32.191   9.482   7.484  0.00  0.00    +0.028 A 
ATOM     27  C   UNL     1     -31.500  10.625   7.094  0.00  0.00    +0.012 A 
ATOM     28  C   UNL     1     -30.152  10.531   6.732  0.00  0.00    +0.001 A 
ATOM     29  C   UNL     1     -29.416  11.659   6.330  0.00  0.00    +0.011 A 
ATOM     30  C   UNL     1     -28.074  11.527   5.980  0.00  0.00    +0.021 A 
ATOM     31  C   UNL     1     -27.476  10.272   6.032  0.00  0.00    +0.043 A 
ATOM     32 CL   UNL     1     -25.818  10.102   5.600  0.00  0.00    -0.083 Cl
ATOM     33  C   UNL     1     -28.206   9.153   6.430  0.00  0.00    +0.048 A 
ATOM     34  C   UNL     1     -29.543   9.260   6.782  0.00  0.00    +0.073 A 
ATOM     35  N   UNL     1     -30.210   8.157   7.161  0.00  0.00    -0.247 NA
ENDBRANCH  24  25
ENDBRANCH   5  23
TORSDOF 6
ENDMDL
MODEL 3
REMARK VINA RESULT:   -12.464      4.596     10.264
REMARK INTER + INTRA:         -17.789
REMARK INTER:                 -17.306
REMARK INTRA:                  -0.483
REMARK UNBOUND:                -0.954
REMARK  Name = CHEMBL264478
REMARK  6 active torsions:
REMARK  status: ('A' for Active; 'I' for Inactive)
REMARK    1  A    between atoms: C_2  and  C_4
REMARK    2  A    between atoms: C_10  and  C_11
REMARK    3  A    between atoms: C_11  and  N_12
REMARK    4  A    between atoms: C_15  and  C_16
REMARK    5  A    between atoms: C_20  and  C_21
REMARK    6  A    between atoms: C_22  and  C_23
REMARK                            x       y       z     vdW  Elec       q    Type
REMARK                         _______ _______ _______ _____ _____    ______ ____
ROOT
ATOM      1  C   UNL     1     -33.106   5.979   7.890  0.00  0.00    +0.023 A 
ATOM      2  C   UNL     1     -34.464   6.276   7.719  0.00  0.00    +0.012 A 
ATOM      3  C   UNL     1     -35.444   5.407   8.204  0.00  0.00    +0.001 A 
ATOM      4  C   UNL     1     -35.075   4.237   8.870  0.00  0.00    +0.008 A 
ATOM      5  C   UNL     1     -33.724   3.927   9.069  0.00  0.00    -0.024 A 
ATOM      6  C   UNL     1     -32.750   4.799   8.563  0.00  0.00    +0.019 A 
ENDROOT
BRANCH   1  10
ATOM      7  N   UNL     1     -30.361   8.009   7.118  0.00  0.00    -0.158 N 
ATOM      8  N   UNL     1     -31.098   8.256   6.014  0.00  0.00    -0.045 NA
ATOM      9  N   UNL     1     -32.198   7.534   6.171  0.00  0.00    -0.108 NA
ATOM     10  C   UNL     1     -32.081   6.878   7.375  0.00  0.00    +0.205 A 
ATOM     11  N   UNL     1     -30.925   7.151   8.003  0.00  0.00    -0.130 NA
BRANCH   7  12
ATOM     12  C   UNL     1     -29.056   8.626   7.341  0.00  0.00    +0.204 C 
BRANCH  12  19
ATOM     13  C   UNL     1     -27.651  10.361   6.107  0.00  0.00    +0.071 A 
ATOM     14  C   UNL     1     -27.509  11.653   5.554  0.00  0.00    +0.053 A 
ATOM     15  C   UNL     1     -28.552  12.564   5.593  0.00  0.00    +0.124 A 
ATOM     16  F   UNL     1     -28.395  13.783   5.057  0.00  0.00    -0.205 F 
ATOM     17  C   UNL     1     -29.763  12.229   6.176  0.00  0.00    +0.039 A 
ATOM     18  C   UNL     1     -29.932  10.962   6.735  0.00  0.00    +0.009 A 
ATOM     19  C   UNL     1     -28.887  10.011   6.726  0.00  0.00    -0.010 A 
BRANCH  13  21
ATOM     20  O   UNL     1     -25.737   9.279   7.030  0.00  0.00    -0.241 OA
ATOM     21  C   UNL     1     -26.467   9.409   5.999  0.00  0.00    +0.387 C 
ATOM     22  O   UNL     1     -26.290   8.818   4.889  0.00  0.00    -0.241 OA
ENDBRANCH  13  21
ENDBRANCH  12  19
ENDBRANCH   7  12
ENDBRANCH   1  10
BRANCH   5  23
ATOM     23  C   UNL     1     -33.285   2.692   9.738  0.00  0.00    +0.010 C 
ATOM     24  C   UNL     1     -32.011   2.270   9.781  0.00  0.00    +0.028 C 
BRANCH  24  25
ATOM     25  C   UNL     1     -31.548   1.041  10.435  0.00  0.00    +0.065 A 
ATOM     26  C   UNL     1     -31.356  -0.154   9.754  0.00  0.00    +0.028 A 
ATOM     27  C   UNL     1     -30.884  -1.256  10.460  0.00  0.00    +0.012 A 
ATOM     28  C   UNL     1     -30.603  -1.137  11.825  0.00  0.00    +0.001 A 
ATOM     29  C   UNL     1     -30.126  -2.224  12.578  0.00  0.00    +0.011 A 
ATOM     30  C   UNL     1     -29.854  -2.067  13.934  0.00  0.00    +0.021 A 
ATOM     31  C   UNL     1     -30.059  -0.828  14.532  0.00  0.00    +0.043 A 
ATOM     32 CL   UNL     1     -29.725  -0.627  16.209  0.00  0.00    -0.083 Cl
ATOM     33  C   UNL     1     -30.533   0.250  13.786  0.00  0.00    +0.048 A 
ATOM     34  C   UNL     1     -30.812   0.118  12.435  0.00  0.00    +0.073 A 
ATOM     35  N   UNL     1     -31.265   1.183  11.752  0.00  0.00    -0.247 NA
ENDBRANCH  24  25
ENDBRANCH   5  23
TORSDOF 6
ENDMDL
