MODEL 1
REMARK VINA RESULT:   -11.669      0.000      0.000
REMARK INTER + INTRA:         -15.805
REMARK INTER:                 -15.080
REMARK INTRA:                  -0.725
REMARK UNBOUND:                -0.725
REMARK  Name = CHEMBL21788
REMARK  7 active torsions:
REMARK  status: ('A' for Active; 'I' for Inactive)
REMARK    1  A    between atoms: C_1  and  O_2
REMARK    2  A    between atoms: O_2  and  C_3
REMARK    3  A    between atoms: C_8  and  N_9
REMARK    4  A    between atoms: C_13  and  C_15
REMARK    5  A    between atoms: C_15  and  C_16
REMARK    6  A    between atoms: C_16  and  C_17
REMARK    7  A    between atoms: C_23  and  C_24
REMARK                            x       y       z     vdW  Elec       q    Type
REMARK                         _______ _______ _______ _____ _____    ______ ____
ROOT
ATOM      1  C   UNL     1      -5.382 -15.382 -52.858  0.00  0.00    +0.047 C 
ENDROOT
BRANCH   1   2
ATOM      2  C   UNL     1      -6.443 -15.047 -53.862  0.00  0.00    -0.013 A 
ATOM      3  C   UNL     1      -6.358 -15.061 -55.235  0.00  0.00    +0.062 A 
ATOM      4  N   UNL     1      -7.575 -14.684 -55.756  0.00  0.00    -0.276 N 
ATOM      5  C   UNL     1      -8.471 -14.385 -54.772  0.00  0.00    +0.058 A 
ATOM      6  C   UNL     1      -9.796 -13.939 -54.829  0.00  0.00    +0.027 A 
ATOM      7  C   UNL     1     -10.455 -13.701 -53.620  0.00  0.00    +0.005 A 
ATOM      8  C   UNL     1      -9.824 -13.916 -52.392  0.00  0.00    -0.050 A 
ATOM      9  C   UNL     1     -10.531 -13.602 -51.110  0.00  0.00    +0.044 C 
ATOM     10  C   UNL     1      -8.490 -14.362 -52.362  0.00  0.00    +0.013 A 
ATOM     11  C   UNL     1      -7.793 -14.604 -53.565  0.00  0.00    +0.004 A 
ATOM     12  C   UNL     1      -7.549 -14.699 -57.148  0.00  0.00    +0.264 C 
ATOM     13  O   UNL     1      -8.506 -14.401 -57.836  0.00  0.00    -0.267 OA
ATOM     14  C   UNL     1      -6.184 -15.110 -57.551  0.00  0.00    +0.049 A 
ATOM     15  C   UNL     1      -5.625 -15.263 -58.803  0.00  0.00    +0.014 A 
ATOM     16  C   UNL     1      -4.282 -15.644 -58.846  0.00  0.00    +0.001 A 
ATOM     17  C   UNL     1      -3.552 -15.857 -57.657  0.00  0.00    +0.001 A 
ATOM     18  C   UNL     1      -4.145 -15.694 -56.395  0.00  0.00    +0.011 A 
ATOM     19  C   UNL     1      -5.469 -15.320 -56.351  0.00  0.00    +0.012 A 
ENDBRANCH   1   2
BRANCH   1  20
ATOM     20  C   UNL     1      -4.146 -14.489 -52.958  0.00  0.00    +0.101 C 
BRANCH  20  25
ATOM     21  N   UNL     1      -0.566 -12.323 -49.787  0.00  0.00    -0.324 N 
ATOM     22  C   UNL     1      -0.864 -13.697 -50.261  0.00  0.00    +0.124 C 
ATOM     23  C   UNL     1      -1.683 -13.703 -51.570  0.00  0.00    +0.126 C 
ATOM     24  N   UNL     1      -2.945 -12.964 -51.431  0.00  0.00    -0.298 N 
ATOM     25  C   UNL     1      -4.161 -13.327 -51.982  0.00  0.00    +0.216 C 
ATOM     26  O   UNL     1      -5.203 -12.756 -51.664  0.00  0.00    -0.276 OA
ATOM     27  C   UNL     1      -2.911 -11.816 -50.514  0.00  0.00    +0.126 C 
ATOM     28  C   UNL     1      -1.486 -11.279 -50.286  0.00  0.00    +0.124 C 
BRANCH  21  34
ATOM     29  C   UNL     1      -1.024 -12.428 -47.308  0.00  0.00    +0.141 A 
ATOM     30  C   UNL     1      -0.479 -12.445 -46.013  0.00  0.00    +0.047 A 
ATOM     31  C   UNL     1       0.898 -12.344 -45.808  0.00  0.00    +0.004 A 
ATOM     32  C   UNL     1       1.747 -12.224 -46.896  0.00  0.00    +0.002 A 
ATOM     33  C   UNL     1       1.219 -12.215 -48.186  0.00  0.00    +0.027 A 
ATOM     34  C   UNL     1      -0.168 -12.320 -48.431  0.00  0.00    +0.072 A 
BRANCH  29  36
ATOM     35  C   UNL     1      -2.945 -13.854 -47.240  0.00  0.00    +0.277 C 
ATOM     36  O   UNL     1      -2.372 -12.585 -47.534  0.00  0.00    -0.493 OA
ENDBRANCH  29  36
ENDBRANCH  21  34
ENDBRANCH  20  25
ENDBRANCH   1  20
TORSDOF 5
ENDMDL
MODEL 2
REMARK VINA RESULT:   -10.516      5.457     12.940
REMARK INTER + INTRA:         -14.315
REMARK INTER:                 -13.319
REMARK INTRA:                  -0.996
REMARK UNBOUND:                -0.725
REMARK  Name = CHEMBL21788
REMARK  7 active torsions:
REMARK  status: ('A' for Active; 'I' for Inactive)
REMARK    1  A    between atoms: C_1  and  O_2
REMARK    2  A    between atoms: O_2  and  C_3
REMARK    3  A    between atoms: C_8  and  N_9
REMARK    4  A    between atoms: C_13  and  C_15
REMARK    5  A    between atoms: C_15  and  C_16
REMARK    6  A    between atoms: C_16  and  C_17
REMARK    7  A    between atoms: C_23  and  C_24
REMARK                            x       y       z     vdW  Elec       q    Type
REMARK                         _______ _______ _______ _____ _____    ______ ____
ROOT
ATOM      1  C   UNL     1      -8.764 -14.495 -58.003  0.00  0.00    +0.047 C 
ENDROOT
BRANCH   1   2
ATOM      2  C   UNL     1      -7.658 -14.751 -57.024  0.00  0.00    -0.013 A 
ATOM      3  C   UNL     1      -7.702 -14.702 -55.650  0.00  0.00    +0.062 A 
ATOM      4  N   UNL     1      -6.454 -15.009 -55.158  0.00  0.00    -0.276 N 
ATOM      5  C   UNL     1      -5.560 -15.235 -56.162  0.00  0.00    +0.058 A 
ATOM      6  C   UNL     1      -4.195 -15.545 -56.137  0.00  0.00    +0.027 A 
ATOM      7  C   UNL     1      -3.541 -15.701 -57.362  0.00  0.00    +0.005 A 
ATOM      8  C   UNL     1      -4.223 -15.570 -58.574  0.00  0.00    -0.050 A 
ATOM      9  C   UNL     1      -3.490 -15.688 -59.874  0.00  0.00    +0.044 C 
ATOM     10  C   UNL     1      -5.594 -15.254 -58.572  0.00  0.00    +0.013 A 
ATOM     11  C   UNL     1      -6.283 -15.082 -57.353  0.00  0.00    +0.004 A 
ATOM     12  C   UNL     1      -6.448 -14.991 -53.766  0.00  0.00    +0.264 C 
ATOM     13  O   UNL     1      -5.459 -15.228 -53.100  0.00  0.00    -0.267 OA
ATOM     14  C   UNL     1      -7.816 -14.624 -53.331  0.00  0.00    +0.049 A 
ATOM     15  C   UNL     1      -8.340 -14.448 -52.067  0.00  0.00    +0.014 A 
ATOM     16  C   UNL     1      -9.682 -14.071 -51.994  0.00  0.00    +0.001 A 
ATOM     17  C   UNL     1     -10.447 -13.886 -53.166  0.00  0.00    +0.001 A 
ATOM     18  C   UNL     1      -9.889 -14.071 -54.440  0.00  0.00    +0.011 A 
ATOM     19  C   UNL     1      -8.566 -14.444 -54.514  0.00  0.00    +0.012 A 
ENDBRANCH   1   2
BRANCH   1  20
ATOM     20  C   UNL     1      -9.663 -15.708 -58.234  0.00  0.00    +0.101 C 
BRANCH  20  25
ATOM     21  N   UNL     1     -12.001 -19.591 -60.886  0.00  0.00    -0.324 N 
ATOM     22  C   UNL     1     -11.117 -19.507 -59.697  0.00  0.00    +0.124 C 
ATOM     23  C   UNL     1     -11.147 -18.110 -59.040  0.00  0.00    +0.126 C 
ATOM     24  N   UNL     1     -10.773 -17.049 -59.986  0.00  0.00    -0.298 N 
ATOM     25  C   UNL     1     -10.001 -15.940 -59.696  0.00  0.00    +0.216 C 
ATOM     26  O   UNL     1      -9.582 -15.201 -60.587  0.00  0.00    -0.276 OA
ATOM     27  C   UNL     1     -11.157 -17.284 -61.385  0.00  0.00    +0.126 C 
ATOM     28  C   UNL     1     -12.311 -18.294 -61.525  0.00  0.00    +0.124 C 
BRANCH  21  34
ATOM     29  C   UNL     1     -12.605 -21.642 -62.224  0.00  0.00    +0.141 A 
ATOM     30  C   UNL     1     -12.144 -22.693 -63.036  0.00  0.00    +0.047 A 
ATOM     31  C   UNL     1     -10.785 -22.846 -63.314  0.00  0.00    +0.004 A 
ATOM     32  C   UNL     1      -9.870 -21.951 -62.785  0.00  0.00    +0.002 A 
ATOM     33  C   UNL     1     -10.316 -20.900 -61.986  0.00  0.00    +0.027 A 
ATOM     34  C   UNL     1     -11.684 -20.711 -61.687  0.00  0.00    +0.072 A 
BRANCH  29  36
ATOM     35  C   UNL     1     -14.743 -20.973 -63.067  0.00  0.00    +0.277 C 
ATOM     36  O   UNL     1     -13.945 -21.440 -61.986  0.00  0.00    -0.493 OA
ENDBRANCH  29  36
ENDBRANCH  21  34
ENDBRANCH  20  25
ENDBRANCH   1  20
TORSDOF 5
ENDMDL
MODEL 3
REMARK VINA RESULT:   -10.490      0.862      4.169
REMARK INTER + INTRA:         -14.282
REMARK INTER:                 -14.657
REMARK INTRA:                   0.375
REMARK UNBOUND:                -0.725
REMARK  Name = CHEMBL21788
REMARK  7 active torsions:
REMARK  status: ('A' for Active; 'I' for Inactive)
REMARK    1  A    between atoms: C_1  and  O_2
REMARK    2  A    between atoms: O_2  and  C_3
REMARK    3  A    between atoms: C_8  and  N_9
REMARK    4  A    between atoms: C_13  and  C_15
REMARK    5  A    between atoms: C_15  and  C_16
REMARK    6  A    between atoms: C_16  and  C_17
REMARK    7  A    between atoms: C_23  and  C_24
REMARK                            x       y       z     vdW  Elec       q    Type
REMARK                         _______ _______ _______ _____ _____    ______ ____
ROOT
ATOM      1  C   UNL     1      -4.713 -14.009 -53.893  0.00  0.00    +0.047 C 
ENDROOT
BRANCH   1   2
ATOM      2  C   UNL     1      -5.847 -14.310 -54.826  0.00  0.00    -0.013 A 
ATOM      3  C   UNL     1      -7.198 -14.286 -54.568  0.00  0.00    +0.062 A 
ATOM      4  N   UNL     1      -7.873 -14.629 -55.717  0.00  0.00    -0.276 N 
ATOM      5  C   UNL     1      -7.014 -14.915 -56.737  0.00  0.00    +0.058 A 
ATOM      6  C   UNL     1      -7.243 -15.329 -58.054  0.00  0.00    +0.027 A 
ATOM      7  C   UNL     1      -6.130 -15.563 -58.865  0.00  0.00    +0.005 A 
ATOM      8  C   UNL     1      -4.830 -15.374 -58.390  0.00  0.00    -0.050 A 
ATOM      9  C   UNL     1      -3.651 -15.682 -59.261  0.00  0.00    +0.044 C 
ATOM     10  C   UNL     1      -4.626 -14.960 -57.061  0.00  0.00    +0.013 A 
ATOM     11  C   UNL     1      -5.728 -14.723 -56.212  0.00  0.00    +0.004 A 
ATOM     12  C   UNL     1      -9.250 -14.601 -55.515  0.00  0.00    +0.264 C 
ATOM     13  O   UNL     1     -10.057 -14.870 -56.384  0.00  0.00    -0.267 OA
ATOM     14  C   UNL     1      -9.473 -14.219 -54.101  0.00  0.00    +0.049 A 
ATOM     15  C   UNL     1     -10.643 -14.068 -53.385  0.00  0.00    +0.014 A 
ATOM     16  C   UNL     1     -10.511 -13.718 -52.039  0.00  0.00    +0.001 A 
ATOM     17  C   UNL     1      -9.237 -13.534 -51.461  0.00  0.00    +0.001 A 
ATOM     18  C   UNL     1      -8.062 -13.695 -52.212  0.00  0.00    +0.011 A 
ATOM     19  C   UNL     1      -8.190 -14.038 -53.539  0.00  0.00    +0.012 A 
ENDBRANCH   1   2
BRANCH   1  20
ATOM     20  C   UNL     1      -5.129 -13.972 -52.423  0.00  0.00    +0.101 C 
BRANCH  20  25
ATOM     21  N   UNL     1      -0.742 -12.578 -49.896  0.00  0.00    -0.324 N 
ATOM     22  C   UNL     1      -1.505 -13.839 -50.072  0.00  0.00    +0.124 C 
ATOM     23  C   UNL     1      -2.414 -13.807 -51.320  0.00  0.00    +0.126 C 
ATOM     24  N   UNL     1      -3.358 -12.682 -51.283  0.00  0.00    -0.298 N 
ATOM     25  C   UNL     1      -4.676 -12.716 -51.701  0.00  0.00    +0.216 C 
ATOM     26  O   UNL     1      -5.447 -11.786 -51.463  0.00  0.00    -0.276 OA
ATOM     27  C   UNL     1      -2.870 -11.466 -50.618  0.00  0.00    +0.126 C 
ATOM     28  C   UNL     1      -1.333 -11.396 -50.558  0.00  0.00    +0.124 C 
BRANCH  21  34
ATOM     29  C   UNL     1      -0.983 -12.444 -47.389  0.00  0.00    +0.141 A 
ATOM     30  C   UNL     1      -0.326 -12.362 -46.148  0.00  0.00    +0.047 A 
ATOM     31  C   UNL     1       1.065 -12.287 -46.073  0.00  0.00    +0.004 A 
ATOM     32  C   UNL     1       1.818 -12.293 -47.235  0.00  0.00    +0.002 A 
ATOM     33  C   UNL     1       1.179 -12.384 -48.471  0.00  0.00    +0.027 A 
ATOM     34  C   UNL     1      -0.227 -12.466 -48.585  0.00  0.00    +0.072 A 
BRANCH  29  36
ATOM     35  C   UNL     1      -2.937 -13.742 -46.915  0.00  0.00    +0.277 C 
ATOM     36  O   UNL     1      -2.349 -12.578 -47.483  0.00  0.00    -0.493 OA
ENDBRANCH  29  36
ENDBRANCH  21  34
ENDBRANCH  20  25
ENDBRANCH   1  20
TORSDOF 5
ENDMDL
