MODEL 1
REMARK VINA RESULT:   -12.481      0.000      0.000
REMARK INTER + INTRA:         -16.836
REMARK INTER:                 -16.130
REMARK INTRA:                  -0.706
REMARK UNBOUND:                -0.706
REMARK  Name = CHEMBL21788
REMARK  7 active torsions:
REMARK  status: ('A' for Active; 'I' for Inactive)
REMARK    1  A    between atoms: C_1  and  O_2
REMARK    2  A    between atoms: O_2  and  C_3
REMARK    3  A    between atoms: C_8  and  N_9
REMARK    4  A    between atoms: C_13  and  C_15
REMARK    5  A    between atoms: C_15  and  C_16
REMARK    6  A    between atoms: C_16  and  C_17
REMARK    7  A    between atoms: C_23  and  C_24
REMARK                            x       y       z     vdW  Elec       q    Type
REMARK                         _______ _______ _______ _____ _____    ______ ____
ROOT
ATOM      1  C   UNL     1      -5.259 -15.065 -52.689  0.00  0.00    +0.047 C 
ENDROOT
BRANCH   1   2
ATOM      2  C   UNL     1      -6.389 -14.839 -53.646  0.00  0.00    -0.013 A 
ATOM      3  C   UNL     1      -6.373 -14.895 -55.021  0.00  0.00    +0.062 A 
ATOM      4  N   UNL     1      -7.637 -14.621 -55.489  0.00  0.00    -0.276 N 
ATOM      5  C   UNL     1      -8.502 -14.350 -54.470  0.00  0.00    +0.058 A 
ATOM      6  C   UNL     1      -9.856 -13.997 -54.472  0.00  0.00    +0.027 A 
ATOM      7  C   UNL     1     -10.469 -13.762 -53.238  0.00  0.00    +0.005 A 
ATOM      8  C   UNL     1      -9.763 -13.890 -52.039  0.00  0.00    -0.050 A 
ATOM      9  C   UNL     1     -10.426 -13.580 -50.732  0.00  0.00    +0.044 C 
ATOM     10  C   UNL     1      -8.402 -14.243 -52.064  0.00  0.00    +0.013 A 
ATOM     11  C   UNL     1      -7.751 -14.479 -53.293  0.00  0.00    +0.004 A 
ATOM     12  C   UNL     1      -7.680 -14.683 -56.879  0.00  0.00    +0.264 C 
ATOM     13  O   UNL     1      -8.688 -14.476 -57.525  0.00  0.00    -0.267 OA
ATOM     14  C   UNL     1      -6.311 -15.014 -57.340  0.00  0.00    +0.049 A 
ATOM     15  C   UNL     1      -5.807 -15.173 -58.614  0.00  0.00    +0.014 A 
ATOM     16  C   UNL     1      -4.444 -15.463 -58.715  0.00  0.00    +0.001 A 
ATOM     17  C   UNL     1      -3.643 -15.583 -57.560  0.00  0.00    +0.001 A 
ATOM     18  C   UNL     1      -4.181 -15.416 -56.275  0.00  0.00    +0.011 A 
ATOM     19  C   UNL     1      -5.524 -15.132 -56.173  0.00  0.00    +0.012 A 
ENDBRANCH   1   2
BRANCH   1  20
ATOM     20  C   UNL     1      -4.100 -14.087 -52.875  0.00  0.00    +0.101 C 
BRANCH  20  25
ATOM     21  N   UNL     1      -0.560 -11.980 -49.620  0.00  0.00    -0.324 N 
ATOM     22  C   UNL     1      -0.862 -13.348 -50.109  0.00  0.00    +0.124 C 
ATOM     23  C   UNL     1      -1.656 -13.336 -51.434  0.00  0.00    +0.126 C 
ATOM     24  N   UNL     1      -2.913 -12.585 -51.315  0.00  0.00    -0.298 N 
ATOM     25  C   UNL     1      -4.121 -12.932 -51.891  0.00  0.00    +0.216 C 
ATOM     26  O   UNL     1      -5.164 -12.351 -51.590  0.00  0.00    -0.276 OA
ATOM     27  C   UNL     1      -2.885 -11.444 -50.389  0.00  0.00    +0.126 C 
ATOM     28  C   UNL     1      -1.459 -10.923 -50.129  0.00  0.00    +0.124 C 
BRANCH  21  34
ATOM     29  C   UNL     1      -1.068 -12.091 -47.151  0.00  0.00    +0.141 A 
ATOM     30  C   UNL     1      -0.549 -12.123 -45.845  0.00  0.00    +0.047 A 
ATOM     31  C   UNL     1       0.825 -12.044 -45.614  0.00  0.00    +0.004 A 
ATOM     32  C   UNL     1       1.697 -11.931 -46.684  0.00  0.00    +0.002 A 
ATOM     33  C   UNL     1       1.195 -11.907 -47.984  0.00  0.00    +0.027 A 
ATOM     34  C   UNL     1      -0.189 -11.990 -48.256  0.00  0.00    +0.072 A 
BRANCH  29  36
ATOM     35  C   UNL     1      -2.984 -13.521 -47.256  0.00  0.00    +0.277 C 
ATOM     36  O   UNL     1      -2.413 -12.227 -47.404  0.00  0.00    -0.493 OA
ENDBRANCH  29  36
ENDBRANCH  21  34
ENDBRANCH  20  25
ENDBRANCH   1  20
TORSDOF 5
ENDMDL
MODEL 2
REMARK VINA RESULT:   -11.205      0.768      4.151
REMARK INTER + INTRA:         -15.187
REMARK INTER:                 -15.699
REMARK INTRA:                   0.513
REMARK UNBOUND:                -0.706
REMARK  Name = CHEMBL21788
REMARK  7 active torsions:
REMARK  status: ('A' for Active; 'I' for Inactive)
REMARK    1  A    between atoms: C_1  and  O_2
REMARK    2  A    between atoms: O_2  and  C_3
REMARK    3  A    between atoms: C_8  and  N_9
REMARK    4  A    between atoms: C_13  and  C_15
REMARK    5  A    between atoms: C_15  and  C_16
REMARK    6  A    between atoms: C_16  and  C_17
REMARK    7  A    between atoms: C_23  and  C_24
REMARK                            x       y       z     vdW  Elec       q    Type
REMARK                         _______ _______ _______ _____ _____    ______ ____
ROOT
ATOM      1  C   UNL     1      -4.537 -13.913 -53.795  0.00  0.00    +0.047 C 
ENDROOT
BRANCH   1   2
ATOM      2  C   UNL     1      -5.717 -14.222 -54.666  0.00  0.00    -0.013 A 
ATOM      3  C   UNL     1      -7.051 -14.233 -54.329  0.00  0.00    +0.062 A 
ATOM      4  N   UNL     1      -7.785 -14.570 -55.443  0.00  0.00    -0.276 N 
ATOM      5  C   UNL     1      -6.981 -14.818 -56.517  0.00  0.00    +0.058 A 
ATOM      6  C   UNL     1      -7.279 -15.213 -57.826  0.00  0.00    +0.027 A 
ATOM      7  C   UNL     1      -6.210 -15.406 -58.706  0.00  0.00    +0.005 A 
ATOM      8  C   UNL     1      -4.889 -15.197 -58.303  0.00  0.00    -0.050 A 
ATOM      9  C   UNL     1      -3.757 -15.463 -59.247  0.00  0.00    +0.044 C 
ATOM     10  C   UNL     1      -4.616 -14.803 -56.981  0.00  0.00    +0.013 A 
ATOM     11  C   UNL     1      -5.671 -14.607 -56.065  0.00  0.00    +0.004 A 
ATOM     12  C   UNL     1      -9.148 -14.577 -55.161  0.00  0.00    +0.264 C 
ATOM     13  O   UNL     1      -9.999 -14.848 -55.986  0.00  0.00    -0.267 OA
ATOM     14  C   UNL     1      -9.296 -14.226 -53.729  0.00  0.00    +0.049 A 
ATOM     15  C   UNL     1     -10.424 -14.114 -52.944  0.00  0.00    +0.014 A 
ATOM     16  C   UNL     1     -10.221 -13.786 -51.601  0.00  0.00    +0.001 A 
ATOM     17  C   UNL     1      -8.920 -13.584 -51.095  0.00  0.00    +0.001 A 
ATOM     18  C   UNL     1      -7.788 -13.704 -51.916  0.00  0.00    +0.011 A 
ATOM     19  C   UNL     1      -7.986 -14.026 -53.240  0.00  0.00    +0.012 A 
ENDBRANCH   1   2
BRANCH   1  20
ATOM     20  C   UNL     1      -4.850 -13.982 -52.301  0.00  0.00    +0.101 C 
BRANCH  20  25
ATOM     21  N   UNL     1      -0.635 -12.288 -49.667  0.00  0.00    -0.324 N 
ATOM     22  C   UNL     1      -1.294 -13.601 -49.874  0.00  0.00    +0.124 C 
ATOM     23  C   UNL     1      -2.179 -13.623 -51.140  0.00  0.00    +0.126 C 
ATOM     24  N   UNL     1      -3.207 -12.574 -51.109  0.00  0.00    -0.298 N 
ATOM     25  C   UNL     1      -4.510 -12.705 -51.554  0.00  0.00    +0.216 C 
ATOM     26  O   UNL     1      -5.355 -11.840 -51.322  0.00  0.00    -0.276 OA
ATOM     27  C   UNL     1      -2.828 -11.333 -50.420  0.00  0.00    +0.126 C 
ATOM     28  C   UNL     1      -1.302 -11.145 -50.328  0.00  0.00    +0.124 C 
BRANCH  21  34
ATOM     29  C   UNL     1      -0.945 -12.102 -47.171  0.00  0.00    +0.141 A 
ATOM     30  C   UNL     1      -0.323 -12.001 -45.914  0.00  0.00    +0.047 A 
ATOM     31  C   UNL     1       1.066 -11.935 -45.801  0.00  0.00    +0.004 A 
ATOM     32  C   UNL     1       1.851 -11.970 -46.941  0.00  0.00    +0.002 A 
ATOM     33  C   UNL     1       1.247 -12.080 -48.192  0.00  0.00    +0.027 A 
ATOM     34  C   UNL     1      -0.156 -12.153 -48.345  0.00  0.00    +0.072 A 
BRANCH  29  36
ATOM     35  C   UNL     1      -2.887 -13.489 -46.989  0.00  0.00    +0.277 C 
ATOM     36  O   UNL     1      -2.309 -12.227 -47.301  0.00  0.00    -0.493 OA
ENDBRANCH  29  36
ENDBRANCH  21  34
ENDBRANCH  20  25
ENDBRANCH   1  20
TORSDOF 5
ENDMDL
MODEL 3
REMARK VINA RESULT:   -10.389      4.171      9.150
REMARK INTER + INTRA:         -14.132
REMARK INTER:                 -13.785
REMARK INTRA:                  -0.347
REMARK UNBOUND:                -0.706
REMARK  Name = CHEMBL21788
REMARK  7 active torsions:
REMARK  status: ('A' for Active; 'I' for Inactive)
REMARK    1  A    between atoms: C_1  and  O_2
REMARK    2  A    between atoms: O_2  and  C_3
REMARK    3  A    between atoms: C_8  and  N_9
REMARK    4  A    between atoms: C_13  and  C_15
REMARK    5  A    between atoms: C_15  and  C_16
REMARK    6  A    between atoms: C_16  and  C_17
REMARK    7  A    between atoms: C_23  and  C_24
REMARK                            x       y       z     vdW  Elec       q    Type
REMARK                         _______ _______ _______ _____ _____    ______ ____
ROOT
ATOM      1  C   UNL     1      -4.432 -15.079 -55.711  0.00  0.00    +0.047 C 
ENDROOT
BRANCH   1   2
ATOM      2  C   UNL     1      -5.484 -14.560 -54.779  0.00  0.00    -0.013 A 
ATOM      3  C   UNL     1      -5.325 -14.009 -53.528  0.00  0.00    +0.062 A 
ATOM      4  N   UNL     1      -6.564 -13.669 -53.035  0.00  0.00    -0.276 N 
ATOM      5  C   UNL     1      -7.559 -14.002 -53.905  0.00  0.00    +0.058 A 
ATOM      6  C   UNL     1      -8.950 -13.873 -53.816  0.00  0.00    +0.027 A 
ATOM      7  C   UNL     1      -9.716 -14.336 -54.890  0.00  0.00    +0.005 A 
ATOM      8  C   UNL     1      -9.119 -14.894 -56.023  0.00  0.00    -0.050 A 
ATOM      9  C   UNL     1      -9.962 -15.432 -57.138  0.00  0.00    +0.044 C 
ATOM     10  C   UNL     1      -7.719 -15.015 -56.086  0.00  0.00    +0.013 A 
ATOM     11  C   UNL     1      -6.917 -14.565 -55.016  0.00  0.00    +0.004 A 
ATOM     12  C   UNL     1      -6.457 -13.088 -51.774  0.00  0.00    +0.264 C 
ATOM     13  O   UNL     1      -7.416 -12.706 -51.132  0.00  0.00    -0.267 OA
ATOM     14  C   UNL     1      -5.017 -13.070 -51.425  0.00  0.00    +0.049 A 
ATOM     15  C   UNL     1      -4.373 -12.624 -50.290  0.00  0.00    +0.014 A 
ATOM     16  C   UNL     1      -2.985 -12.773 -50.259  0.00  0.00    +0.001 A 
ATOM     17  C   UNL     1      -2.295 -13.352 -51.346  0.00  0.00    +0.001 A 
ATOM     18  C   UNL     1      -2.974 -13.798 -52.490  0.00  0.00    +0.011 A 
ATOM     19  C   UNL     1      -4.343 -13.651 -52.523  0.00  0.00    +0.012 A 
ENDBRANCH   1   2
BRANCH   1  20
ATOM     20  C   UNL     1      -4.989 -15.976 -56.816  0.00  0.00    +0.101 C 
BRANCH  20  25
ATOM     21  N   UNL     1      -1.149 -18.002 -59.770  0.00  0.00    -0.324 N 
ATOM     22  C   UNL     1      -1.369 -17.799 -58.316  0.00  0.00    +0.124 C 
ATOM     23  C   UNL     1      -2.864 -17.645 -57.963  0.00  0.00    +0.126 C 
ATOM     24  N   UNL     1      -3.490 -16.537 -58.698  0.00  0.00    -0.298 N 
ATOM     25  C   UNL     1      -4.429 -15.657 -58.191  0.00  0.00    +0.216 C 
ATOM     26  O   UNL     1      -4.762 -14.649 -58.813  0.00  0.00    -0.276 OA
ATOM     27  C   UNL     1      -2.956 -16.287 -60.044  0.00  0.00    +0.126 C 
ATOM     28  C   UNL     1      -2.241 -17.513 -60.639  0.00  0.00    +0.124 C 
BRANCH  21  34
ATOM     29  C   UNL     1       1.130 -18.727 -60.571  0.00  0.00    +0.141 A 
ATOM     30  C   UNL     1       2.431 -18.330 -60.927  0.00  0.00    +0.047 A 
ATOM     31  C   UNL     1       2.827 -16.995 -60.839  0.00  0.00    +0.004 A 
ATOM     32  C   UNL     1       1.929 -16.039 -60.394  0.00  0.00    +0.002 A 
ATOM     33  C   UNL     1       0.633 -16.419 -60.047  0.00  0.00    +0.027 A 
ATOM     34  C   UNL     1       0.196 -17.760 -60.128  0.00  0.00    +0.072 A 
BRANCH  29  36
ATOM     35  C   UNL     1       1.250 -20.996 -59.821  0.00  0.00    +0.277 C 
ATOM     36  O   UNL     1       0.702 -20.027 -60.706  0.00  0.00    -0.493 OA
ENDBRANCH  29  36
ENDBRANCH  21  34
ENDBRANCH  20  25
ENDBRANCH   1  20
TORSDOF 5
ENDMDL
