MODEL 1
REMARK VINA RESULT:   -11.450      0.000      0.000
REMARK INTER + INTRA:         -15.138
REMARK INTER:                 -14.797
REMARK INTRA:                  -0.341
REMARK UNBOUND:                -0.341
REMARK  Name = CHEMBL21788
REMARK  7 active torsions:
REMARK  status: ('A' for Active; 'I' for Inactive)
REMARK    1  A    between atoms: C_1  and  O_2
REMARK    2  A    between atoms: O_2  and  C_3
REMARK    3  A    between atoms: C_8  and  N_9
REMARK    4  A    between atoms: C_13  and  C_15
REMARK    5  A    between atoms: C_15  and  C_16
REMARK    6  A    between atoms: C_16  and  C_17
REMARK    7  A    between atoms: C_23  and  C_24
REMARK                            x       y       z     vdW  Elec       q    Type
REMARK                         _______ _______ _______ _____ _____    ______ ____
ROOT
ATOM      1  C   UNL     1      21.684   8.578 -14.504  0.00  0.00    +0.047 C 
ENDROOT
BRANCH   1   2
ATOM      2  C   UNL     1      22.095   9.927 -15.012  0.00  0.00    -0.013 A 
ATOM      3  C   UNL     1      22.784  10.918 -14.352  0.00  0.00    +0.062 A 
ATOM      4  N   UNL     1      22.944  11.986 -15.203  0.00  0.00    -0.276 N 
ATOM      5  C   UNL     1      22.356  11.757 -16.412  0.00  0.00    +0.058 A 
ATOM      6  C   UNL     1      22.243  12.557 -17.555  0.00  0.00    +0.027 A 
ATOM      7  C   UNL     1      21.550  12.033 -18.650  0.00  0.00    +0.005 A 
ATOM      8  C   UNL     1      21.000  10.749 -18.617  0.00  0.00    -0.050 A 
ATOM      9  C   UNL     1      20.215  10.229 -19.781  0.00  0.00    +0.044 C 
ATOM     10  C   UNL     1      21.125   9.966 -17.455  0.00  0.00    +0.013 A 
ATOM     11  C   UNL     1      21.812  10.468 -16.329  0.00  0.00    +0.004 A 
ATOM     12  C   UNL     1      23.653  13.014 -14.588  0.00  0.00    +0.264 C 
ATOM     13  O   UNL     1      23.918  14.065 -15.139  0.00  0.00    -0.267 OA
ATOM     14  C   UNL     1      23.961  12.564 -13.210  0.00  0.00    +0.049 A 
ATOM     15  C   UNL     1      24.622  13.204 -12.183  0.00  0.00    +0.014 A 
ATOM     16  C   UNL     1      24.727  12.507 -10.977  0.00  0.00    +0.001 A 
ATOM     17  C   UNL     1      24.177  11.215 -10.838  0.00  0.00    +0.001 A 
ATOM     18  C   UNL     1      23.509  10.586 -11.900  0.00  0.00    +0.011 A 
ATOM     19  C   UNL     1      23.406  11.270 -13.090  0.00  0.00    +0.012 A 
ENDBRANCH   1   2
BRANCH   1  20
ATOM     20  C   UNL     1      21.512   8.527 -12.986  0.00  0.00    +0.101 C 
BRANCH  20  25
ATOM     21  N   UNL     1      19.602   4.270 -10.577  0.00  0.00    -0.324 N 
ATOM     22  C   UNL     1      19.210   5.699 -10.667  0.00  0.00    +0.124 C 
ATOM     23  C   UNL     1      19.806   6.396 -11.909  0.00  0.00    +0.126 C 
ATOM     24  N   UNL     1      21.272   6.302 -11.941  0.00  0.00    -0.298 N 
ATOM     25  C   UNL     1      22.139   7.300 -12.349  0.00  0.00    +0.216 C 
ATOM     26  O   UNL     1      23.352   7.206 -12.169  0.00  0.00    -0.276 OA
ATOM     27  C   UNL     1      21.843   5.079 -11.359  0.00  0.00    +0.126 C 
ATOM     28  C   UNL     1      20.835   3.916 -11.312  0.00  0.00    +0.124 C 
BRANCH  21  34
ATOM     29  C   UNL     1      18.626   2.606  -8.952  0.00  0.00    +0.141 A 
ATOM     30  C   UNL     1      18.527   2.193  -7.612  0.00  0.00    +0.047 A 
ATOM     31  C   UNL     1      19.155   2.905  -6.589  0.00  0.00    +0.004 A 
ATOM     32  C   UNL     1      19.890   4.039  -6.892  0.00  0.00    +0.002 A 
ATOM     33  C   UNL     1      20.004   4.453  -8.218  0.00  0.00    +0.027 A 
ATOM     34  C   UNL     1      19.386   3.756  -9.279  0.00  0.00    +0.072 A 
BRANCH  29  36
ATOM     35  C   UNL     1      16.713   2.172 -10.322  0.00  0.00    +0.277 C 
ATOM     36  O   UNL     1      18.064   1.887  -9.980  0.00  0.00    -0.493 OA
ENDBRANCH  29  36
ENDBRANCH  21  34
ENDBRANCH  20  25
ENDBRANCH   1  20
TORSDOF 5
ENDMDL
MODEL 2
REMARK VINA RESULT:   -10.992      0.683      4.164
REMARK INTER + INTRA:         -14.546
REMARK INTER:                 -14.062
REMARK INTRA:                  -0.485
REMARK UNBOUND:                -0.341
REMARK  Name = CHEMBL21788
REMARK  7 active torsions:
REMARK  status: ('A' for Active; 'I' for Inactive)
REMARK    1  A    between atoms: C_1  and  O_2
REMARK    2  A    between atoms: O_2  and  C_3
REMARK    3  A    between atoms: C_8  and  N_9
REMARK    4  A    between atoms: C_13  and  C_15
REMARK    5  A    between atoms: C_15  and  C_16
REMARK    6  A    between atoms: C_16  and  C_17
REMARK    7  A    between atoms: C_23  and  C_24
REMARK                            x       y       z     vdW  Elec       q    Type
REMARK                         _______ _______ _______ _____ _____    ______ ____
ROOT
ATOM      1  C   UNL     1      21.621   9.038 -14.426  0.00  0.00    +0.047 C 
ENDROOT
BRANCH   1   2
ATOM      2  C   UNL     1      22.195  10.365 -14.822  0.00  0.00    -0.013 A 
ATOM      3  C   UNL     1      22.113  11.006 -16.037  0.00  0.00    +0.062 A 
ATOM      4  N   UNL     1      22.785  12.203 -15.950  0.00  0.00    -0.276 N 
ATOM      5  C   UNL     1      23.346  12.376 -14.719  0.00  0.00    +0.058 A 
ATOM      6  C   UNL     1      24.129  13.410 -14.194  0.00  0.00    +0.027 A 
ATOM      7  C   UNL     1      24.576  13.282 -12.876  0.00  0.00    +0.005 A 
ATOM      8  C   UNL     1      24.241  12.171 -12.098  0.00  0.00    -0.050 A 
ATOM      9  C   UNL     1      24.775  12.030 -10.706  0.00  0.00    +0.044 C 
ATOM     10  C   UNL     1      23.454  11.145 -12.650  0.00  0.00    +0.013 A 
ATOM     11  C   UNL     1      22.994  11.238 -13.980  0.00  0.00    +0.004 A 
ATOM     12  C   UNL     1      22.717  12.903 -17.152  0.00  0.00    +0.264 C 
ATOM     13  O   UNL     1      23.237  13.988 -17.322  0.00  0.00    -0.267 OA
ATOM     14  C   UNL     1      21.941  12.066 -18.097  0.00  0.00    +0.049 A 
ATOM     15  C   UNL     1      21.602  12.280 -19.417  0.00  0.00    +0.014 A 
ATOM     16  C   UNL     1      20.873  11.269 -20.047  0.00  0.00    +0.001 A 
ATOM     17  C   UNL     1      20.512  10.096 -19.351  0.00  0.00    +0.001 A 
ATOM     18  C   UNL     1      20.871   9.902 -18.008  0.00  0.00    +0.011 A 
ATOM     19  C   UNL     1      21.588  10.898 -17.384  0.00  0.00    +0.012 A 
ENDBRANCH   1   2
BRANCH   1  20
ATOM     20  C   UNL     1      21.367   8.910 -12.924  0.00  0.00    +0.101 C 
BRANCH  20  25
ATOM     21  N   UNL     1      19.687   4.468 -10.685  0.00  0.00    -0.324 N 
ATOM     22  C   UNL     1      19.197   5.867 -10.754  0.00  0.00    +0.124 C 
ATOM     23  C   UNL     1      19.782   6.637 -11.958  0.00  0.00    +0.126 C 
ATOM     24  N   UNL     1      21.252   6.647 -11.942  0.00  0.00    -0.298 N 
ATOM     25  C   UNL     1      22.058   7.714 -12.296  0.00  0.00    +0.216 C 
ATOM     26  O   UNL     1      23.269   7.700 -12.076  0.00  0.00    -0.276 OA
ATOM     27  C   UNL     1      21.888   5.452 -11.370  0.00  0.00    +0.126 C 
ATOM     28  C   UNL     1      20.965   4.220 -11.386  0.00  0.00    +0.124 C 
BRANCH  21  34
ATOM     29  C   UNL     1      18.716   2.736  -9.129  0.00  0.00    +0.141 A 
ATOM     30  C   UNL     1      18.610   2.274  -7.805  0.00  0.00    +0.047 A 
ATOM     31  C   UNL     1      19.220   2.957  -6.752  0.00  0.00    +0.004 A 
ATOM     32  C   UNL     1      19.944   4.110  -7.008  0.00  0.00    +0.002 A 
ATOM     33  C   UNL     1      20.065   4.572  -8.318  0.00  0.00    +0.027 A 
ATOM     34  C   UNL     1      19.464   3.905  -9.409  0.00  0.00    +0.072 A 
BRANCH  29  36
ATOM     35  C   UNL     1      16.763   2.115 -10.363  0.00  0.00    +0.277 C 
ATOM     36  O   UNL     1      18.172   2.046 -10.187  0.00  0.00    -0.493 OA
ENDBRANCH  29  36
ENDBRANCH  21  34
ENDBRANCH  20  25
ENDBRANCH   1  20
TORSDOF 5
ENDMDL
MODEL 3
REMARK VINA RESULT:   -10.055      2.288     10.582
REMARK INTER + INTRA:         -13.335
REMARK INTER:                 -12.307
REMARK INTRA:                  -1.028
REMARK UNBOUND:                -0.341
REMARK  Name = CHEMBL21788
REMARK  7 active torsions:
REMARK  status: ('A' for Active; 'I' for Inactive)
REMARK    1  A    between atoms: C_1  and  O_2
REMARK    2  A    between atoms: O_2  and  C_3
REMARK    3  A    between atoms: C_8  and  N_9
REMARK    4  A    between atoms: C_13  and  C_15
REMARK    5  A    between atoms: C_15  and  C_16
REMARK    6  A    between atoms: C_16  and  C_17
REMARK    7  A    between atoms: C_23  and  C_24
REMARK                            x       y       z     vdW  Elec       q    Type
REMARK                         _______ _______ _______ _____ _____    ______ ____
ROOT
ATOM      1  C   UNL     1      20.708   3.741 -11.297  0.00  0.00    +0.047 C 
ENDROOT
BRANCH   1   2
ATOM      2  C   UNL     1      19.322   3.352 -10.879  0.00  0.00    -0.013 A 
ATOM      3  C   UNL     1      18.181   3.296 -11.645  0.00  0.00    +0.062 A 
ATOM      4  N   UNL     1      17.135   2.887 -10.849  0.00  0.00    -0.276 N 
ATOM      5  C   UNL     1      17.532   2.695  -9.559  0.00  0.00    +0.058 A 
ATOM      6  C   UNL     1      16.820   2.313  -8.417  0.00  0.00    +0.027 A 
ATOM      7  C   UNL     1      17.523   2.220  -7.212  0.00  0.00    +0.005 A 
ATOM      8  C   UNL     1      18.894   2.481  -7.147  0.00  0.00    -0.050 A 
ATOM      9  C   UNL     1      19.615   2.428  -5.836  0.00  0.00    +0.044 C 
ATOM     10  C   UNL     1      19.586   2.866  -8.310  0.00  0.00    +0.013 A 
ATOM     11  C   UNL     1      18.905   2.977  -9.540  0.00  0.00    +0.004 A 
ATOM     12  C   UNL     1      15.955   2.795 -11.582  0.00  0.00    +0.264 C 
ATOM     13  O   UNL     1      14.894   2.456 -11.098  0.00  0.00    -0.267 OA
ATOM     14  C   UNL     1      16.276   3.197 -12.972  0.00  0.00    +0.049 A 
ATOM     15  C   UNL     1      15.469   3.301 -14.086  0.00  0.00    +0.014 A 
ATOM     16  C   UNL     1      16.081   3.740 -15.262  0.00  0.00    +0.001 A 
ATOM     17  C   UNL     1      17.456   4.056 -15.288  0.00  0.00    +0.001 A 
ATOM     18  C   UNL     1      18.255   3.942 -14.140  0.00  0.00    +0.011 A 
ATOM     19  C   UNL     1      17.654   3.508 -12.980  0.00  0.00    +0.012 A 
ENDBRANCH   1   2
BRANCH   1  20
ATOM     20  C   UNL     1      21.195   5.039 -10.653  0.00  0.00    +0.101 C 
BRANCH  20  25
ATOM     21  N   UNL     1      22.938   9.134 -13.441  0.00  0.00    -0.324 N 
ATOM     22  C   UNL     1      23.495   8.271 -12.369  0.00  0.00    +0.124 C 
ATOM     23  C   UNL     1      22.772   6.910 -12.274  0.00  0.00    +0.126 C 
ATOM     24  N   UNL     1      21.328   7.069 -12.054  0.00  0.00    -0.298 N 
ATOM     25  C   UNL     1      20.542   6.281 -11.233  0.00  0.00    +0.216 C 
ATOM     26  O   UNL     1      19.384   6.596 -10.962  0.00  0.00    -0.276 OA
ATOM     27  C   UNL     1      20.719   8.257 -12.670  0.00  0.00    +0.126 C 
ATOM     28  C   UNL     1      21.551   8.814 -13.840  0.00  0.00    +0.124 C 
BRANCH  21  34
ATOM     29  C   UNL     1      23.653  11.392 -14.308  0.00  0.00    +0.141 A 
ATOM     30  C   UNL     1      23.991  12.719 -13.989  0.00  0.00    +0.047 A 
ATOM     31  C   UNL     1      24.025  13.157 -12.665  0.00  0.00    +0.004 A 
ATOM     32  C   UNL     1      23.722  12.274 -11.641  0.00  0.00    +0.002 A 
ATOM     33  C   UNL     1      23.376  10.959 -11.945  0.00  0.00    +0.027 A 
ATOM     34  C   UNL     1      23.327  10.482 -13.273  0.00  0.00    +0.072 A 
BRANCH  29  36
ATOM     35  C   UNL     1      22.459  11.426 -16.381  0.00  0.00    +0.277 C 
ATOM     36  O   UNL     1      23.557  10.956 -15.609  0.00  0.00    -0.493 OA
ENDBRANCH  29  36
ENDBRANCH  21  34
ENDBRANCH  20  25
ENDBRANCH   1  20
TORSDOF 5
ENDMDL
