MODEL 1
REMARK VINA RESULT:   -13.666      0.000      0.000
REMARK INTER + INTRA:         -17.949
REMARK INTER:                 -17.660
REMARK INTRA:                  -0.289
REMARK UNBOUND:                -0.289
REMARK  Name = CHEMBL21788
REMARK  7 active torsions:
REMARK  status: ('A' for Active; 'I' for Inactive)
REMARK    1  A    between atoms: C_1  and  O_2
REMARK    2  A    between atoms: O_2  and  C_3
REMARK    3  A    between atoms: C_8  and  N_9
REMARK    4  A    between atoms: C_13  and  C_15
REMARK    5  A    between atoms: C_15  and  C_16
REMARK    6  A    between atoms: C_16  and  C_17
REMARK    7  A    between atoms: C_23  and  C_24
REMARK                            x       y       z     vdW  Elec       q    Type
REMARK                         _______ _______ _______ _____ _____    ______ ____
ROOT
ATOM      1  C   UNL     1     -30.128   8.041   8.184  0.00  0.00    +0.047 C 
ENDROOT
BRANCH   1   2
ATOM      2  C   UNL     1     -28.708   8.139   7.714  0.00  0.00    -0.013 A 
ATOM      3  C   UNL     1     -28.102   9.166   7.027  0.00  0.00    +0.062 A 
ATOM      4  N   UNL     1     -26.786   8.831   6.804  0.00  0.00    -0.276 N 
ATOM      5  C   UNL     1     -26.494   7.592   7.294  0.00  0.00    +0.058 A 
ATOM      6  C   UNL     1     -25.313   6.841   7.272  0.00  0.00    +0.027 A 
ATOM      7  C   UNL     1     -25.338   5.572   7.855  0.00  0.00    +0.005 A 
ATOM      8  C   UNL     1     -26.495   5.070   8.458  0.00  0.00    -0.050 A 
ATOM      9  C   UNL     1     -26.514   3.686   9.028  0.00  0.00    +0.044 C 
ATOM     10  C   UNL     1     -27.670   5.844   8.464  0.00  0.00    +0.013 A 
ATOM     11  C   UNL     1     -27.681   7.126   7.876  0.00  0.00    +0.004 A 
ATOM     12  C   UNL     1     -26.120   9.848   6.126  0.00  0.00    +0.264 C 
ATOM     13  O   UNL     1     -24.947   9.783   5.812  0.00  0.00    -0.267 OA
ATOM     14  C   UNL     1     -27.107  10.925   5.881  0.00  0.00    +0.049 A 
ATOM     15  C   UNL     1     -26.973  12.137   5.235  0.00  0.00    +0.014 A 
ATOM     16  C   UNL     1     -28.120  12.929   5.149  0.00  0.00    +0.001 A 
ATOM     17  C   UNL     1     -29.343  12.494   5.703  0.00  0.00    +0.001 A 
ATOM     18  C   UNL     1     -29.453  11.256   6.355  0.00  0.00    +0.011 A 
ATOM     19  C   UNL     1     -28.323  10.474   6.442  0.00  0.00    +0.012 A 
ENDBRANCH   1   2
BRANCH   1  20
ATOM     20  C   UNL     1     -30.928   6.949   7.475  0.00  0.00    +0.101 C 
BRANCH  20  25
ATOM     21  N   UNL     1     -35.580   4.590   8.079  0.00  0.00    -0.324 N 
ATOM     22  C   UNL     1     -35.127   5.948   7.687  0.00  0.00    +0.124 C 
ATOM     23  C   UNL     1     -33.673   5.956   7.168  0.00  0.00    +0.126 C 
ATOM     24  N   UNL     1     -32.734   5.408   8.157  0.00  0.00    -0.298 N 
ATOM     25  C   UNL     1     -31.462   5.885   8.417  0.00  0.00    +0.216 C 
ATOM     26  O   UNL     1     -30.816   5.488   9.386  0.00  0.00    -0.276 OA
ATOM     27  C   UNL     1     -33.270   4.346   9.020  0.00  0.00    +0.126 C 
ATOM     28  C   UNL     1     -34.495   3.642   8.408  0.00  0.00    +0.124 C 
BRANCH  21  34
ATOM     29  C   UNL     1     -37.272   3.580   9.654  0.00  0.00    +0.141 A 
ATOM     30  C   UNL     1     -38.414   3.795  10.446  0.00  0.00    +0.047 A 
ATOM     31  C   UNL     1     -39.040   5.041  10.486  0.00  0.00    +0.004 A 
ATOM     32  C   UNL     1     -38.534   6.089   9.735  0.00  0.00    +0.002 A 
ATOM     33  C   UNL     1     -37.397   5.891   8.953  0.00  0.00    +0.027 A 
ATOM     34  C   UNL     1     -36.735   4.645   8.891  0.00  0.00    +0.072 A 
BRANCH  29  36
ATOM     35  C   UNL     1     -36.729   1.548  10.795  0.00  0.00    +0.277 C 
ATOM     36  O   UNL     1     -36.606   2.377   9.646  0.00  0.00    -0.493 OA
ENDBRANCH  29  36
ENDBRANCH  21  34
ENDBRANCH  20  25
ENDBRANCH   1  20
TORSDOF 5
ENDMDL
MODEL 2
REMARK VINA RESULT:   -12.872      0.725      4.143
REMARK INTER + INTRA:         -16.924
REMARK INTER:                 -16.741
REMARK INTRA:                  -0.183
REMARK UNBOUND:                -0.289
REMARK  Name = CHEMBL21788
REMARK  7 active torsions:
REMARK  status: ('A' for Active; 'I' for Inactive)
REMARK    1  A    between atoms: C_1  and  O_2
REMARK    2  A    between atoms: O_2  and  C_3
REMARK    3  A    between atoms: C_8  and  N_9
REMARK    4  A    between atoms: C_13  and  C_15
REMARK    5  A    between atoms: C_15  and  C_16
REMARK    6  A    between atoms: C_16  and  C_17
REMARK    7  A    between atoms: C_23  and  C_24
REMARK                            x       y       z     vdW  Elec       q    Type
REMARK                         _______ _______ _______ _____ _____    ______ ____
ROOT
ATOM      1  C   UNL     1     -30.105   8.537   7.862  0.00  0.00    +0.047 C 
ENDROOT
BRANCH   1   2
ATOM      2  C   UNL     1     -28.714   8.711   7.331  0.00  0.00    -0.013 A 
ATOM      3  C   UNL     1     -27.639   7.860   7.449  0.00  0.00    +0.062 A 
ATOM      4  N   UNL     1     -26.560   8.421   6.806  0.00  0.00    -0.276 N 
ATOM      5  C   UNL     1     -26.866   9.643   6.283  0.00  0.00    +0.058 A 
ATOM      6  C   UNL     1     -26.090  10.573   5.583  0.00  0.00    +0.027 A 
ATOM      7  C   UNL     1     -26.703  11.765   5.188  0.00  0.00    +0.005 A 
ATOM      8  C   UNL     1     -28.048  12.019   5.465  0.00  0.00    -0.050 A 
ATOM      9  C   UNL     1     -28.669  13.327   5.080  0.00  0.00    +0.044 C 
ATOM     10  C   UNL     1     -28.806  11.069   6.173  0.00  0.00    +0.013 A 
ATOM     11  C   UNL     1     -28.216   9.858   6.593  0.00  0.00    +0.004 A 
ATOM     12  C   UNL     1     -25.446   7.589   6.880  0.00  0.00    +0.264 C 
ATOM     13  O   UNL     1     -24.370   7.869   6.388  0.00  0.00    -0.267 OA
ATOM     14  C   UNL     1     -25.850   6.392   7.655  0.00  0.00    +0.049 A 
ATOM     15  C   UNL     1     -25.126   5.280   8.032  0.00  0.00    +0.014 A 
ATOM     16  C   UNL     1     -25.802   4.323   8.793  0.00  0.00    +0.001 A 
ATOM     17  C   UNL     1     -27.156   4.505   9.147  0.00  0.00    +0.001 A 
ATOM     18  C   UNL     1     -27.870   5.647   8.751  0.00  0.00    +0.011 A 
ATOM     19  C   UNL     1     -27.206   6.590   7.999  0.00  0.00    +0.012 A 
ENDBRANCH   1   2
BRANCH   1  20
ATOM     20  C   UNL     1     -30.843   7.347   7.252  0.00  0.00    +0.101 C 
BRANCH  20  25
ATOM     21  N   UNL     1     -35.337   4.767   8.106  0.00  0.00    -0.324 N 
ATOM     22  C   UNL     1     -34.971   6.115   7.603  0.00  0.00    +0.124 C 
ATOM     23  C   UNL     1     -33.525   6.169   7.063  0.00  0.00    +0.126 C 
ATOM     24  N   UNL     1     -32.545   5.759   8.078  0.00  0.00    -0.298 N 
ATOM     25  C   UNL     1     -31.302   6.330   8.282  0.00  0.00    +0.216 C 
ATOM     26  O   UNL     1     -30.623   6.050   9.269  0.00  0.00    -0.276 OA
ATOM     27  C   UNL     1     -33.006   4.738   9.029  0.00  0.00    +0.126 C 
ATOM     28  C   UNL     1     -34.192   3.915   8.492  0.00  0.00    +0.124 C 
BRANCH  21  34
ATOM     29  C   UNL     1     -37.144   3.708   9.511  0.00  0.00    +0.141 A 
ATOM     30  C   UNL     1     -38.261   3.916  10.339  0.00  0.00    +0.047 A 
ATOM     31  C   UNL     1     -38.744   5.201  10.590  0.00  0.00    +0.004 A 
ATOM     32  C   UNL     1     -38.118   6.295  10.016  0.00  0.00    +0.002 A 
ATOM     33  C   UNL     1     -37.004   6.103   9.201  0.00  0.00    +0.027 A 
ATOM     34  C   UNL     1     -36.485   4.817   8.928  0.00  0.00    +0.072 A 
BRANCH  29  36
ATOM     35  C   UNL     1     -36.234   1.700  10.441  0.00  0.00    +0.277 C 
ATOM     36  O   UNL     1     -36.617   2.456   9.298  0.00  0.00    -0.493 OA
ENDBRANCH  29  36
ENDBRANCH  21  34
ENDBRANCH  20  25
ENDBRANCH   1  20
TORSDOF 5
ENDMDL
MODEL 3
REMARK VINA RESULT:   -12.395      1.879      5.062
REMARK INTER + INTRA:         -16.307
REMARK INTER:                 -16.671
REMARK INTRA:                   0.365
REMARK UNBOUND:                -0.289
REMARK  Name = CHEMBL21788
REMARK  7 active torsions:
REMARK  status: ('A' for Active; 'I' for Inactive)
REMARK    1  A    between atoms: C_1  and  O_2
REMARK    2  A    between atoms: O_2  and  C_3
REMARK    3  A    between atoms: C_8  and  N_9
REMARK    4  A    between atoms: C_13  and  C_15
REMARK    5  A    between atoms: C_15  and  C_16
REMARK    6  A    between atoms: C_16  and  C_17
REMARK    7  A    between atoms: C_23  and  C_24
REMARK                            x       y       z     vdW  Elec       q    Type
REMARK                         _______ _______ _______ _____ _____    ______ ____
ROOT
ATOM      1  C   UNL     1     -30.209   8.367   7.503  0.00  0.00    +0.047 C 
ENDROOT
BRANCH   1   2
ATOM      2  C   UNL     1     -28.752   8.538   7.193  0.00  0.00    -0.013 A 
ATOM      3  C   UNL     1     -27.716   7.667   7.437  0.00  0.00    +0.062 A 
ATOM      4  N   UNL     1     -26.547   8.234   6.986  0.00  0.00    -0.276 N 
ATOM      5  C   UNL     1     -26.759   9.479   6.471  0.00  0.00    +0.058 A 
ATOM      6  C   UNL     1     -25.876  10.422   5.933  0.00  0.00    +0.027 A 
ATOM      7  C   UNL     1     -26.410  11.638   5.498  0.00  0.00    +0.005 A 
ATOM      8  C   UNL     1     -27.780  11.903   5.580  0.00  0.00    -0.050 A 
ATOM      9  C   UNL     1     -28.322  13.234   5.158  0.00  0.00    +0.044 C 
ATOM     10  C   UNL     1     -28.645  10.939   6.128  0.00  0.00    +0.013 A 
ATOM     11  C   UNL     1     -28.138   9.704   6.584  0.00  0.00    +0.004 A 
ATOM     12  C   UNL     1     -25.465   7.382   7.193  0.00  0.00    +0.264 C 
ATOM     13  O   UNL     1     -24.325   7.663   6.879  0.00  0.00    -0.267 OA
ATOM     14  C   UNL     1     -25.994   6.163   7.851  0.00  0.00    +0.049 A 
ATOM     15  C   UNL     1     -25.346   5.026   8.288  0.00  0.00    +0.014 A 
ATOM     16  C   UNL     1     -26.138   4.053   8.901  0.00  0.00    +0.001 A 
ATOM     17  C   UNL     1     -27.528   4.243   9.055  0.00  0.00    +0.001 A 
ATOM     18  C   UNL     1     -28.162   5.410   8.602  0.00  0.00    +0.011 A 
ATOM     19  C   UNL     1     -27.384   6.370   7.996  0.00  0.00    +0.012 A 
ENDBRANCH   1   2
BRANCH   1  20
ATOM     20  C   UNL     1     -31.118   8.608   6.298  0.00  0.00    +0.101 C 
BRANCH  20  25
ATOM     21  N   UNL     1     -33.257   4.822   9.241  0.00  0.00    -0.324 N 
ATOM     22  C   UNL     1     -31.961   5.544   9.227  0.00  0.00    +0.124 C 
ATOM     23  C   UNL     1     -32.051   6.901   8.496  0.00  0.00    +0.126 C 
ATOM     24  N   UNL     1     -32.525   6.749   7.113  0.00  0.00    -0.298 N 
ATOM     25  C   UNL     1     -32.064   7.455   6.017  0.00  0.00    +0.216 C 
ATOM     26  O   UNL     1     -32.381   7.137   4.872  0.00  0.00    -0.276 OA
ATOM     27  C   UNL     1     -33.477   5.653   6.886  0.00  0.00    +0.126 C 
ATOM     28  C   UNL     1     -34.201   5.215   8.172  0.00  0.00    +0.124 C 
BRANCH  21  34
ATOM     29  C   UNL     1     -34.112   2.530   9.858  0.00  0.00    +0.141 A 
ATOM     30  C   UNL     1     -33.789   1.187  10.120  0.00  0.00    +0.047 A 
ATOM     31  C   UNL     1     -32.465   0.748  10.101  0.00  0.00    +0.004 A 
ATOM     32  C   UNL     1     -31.447   1.643   9.821  0.00  0.00    +0.002 A 
ATOM     33  C   UNL     1     -31.755   2.975   9.550  0.00  0.00    +0.027 A 
ATOM     34  C   UNL     1     -33.084   3.455   9.556  0.00  0.00    +0.072 A 
BRANCH  29  36
ATOM     35  C   UNL     1     -36.388   2.223  10.533  0.00  0.00    +0.277 C 
ATOM     36  O   UNL     1     -35.414   2.971   9.814  0.00  0.00    -0.493 OA
ENDBRANCH  29  36
ENDBRANCH  21  34
ENDBRANCH  20  25
ENDBRANCH   1  20
TORSDOF 5
ENDMDL
