MODEL 1
REMARK VINA RESULT:   -10.832      0.000      0.000
REMARK INTER + INTRA:         -16.875
REMARK INTER:                 -15.581
REMARK INTRA:                  -1.294
REMARK UNBOUND:                -1.294
REMARK  Name = CHEMBL11533
REMARK  8 active torsions:
REMARK  status: ('A' for Active; 'I' for Inactive)
REMARK    1  A    between atoms: C_2  and  C_3
REMARK    2  A    between atoms: C_2  and  C_23
REMARK    3  A    between atoms: C_4  and  C_5
REMARK    4  A    between atoms: C_9  and  O_10
REMARK    5  A    between atoms: O_10  and  C_11
REMARK    6  A    between atoms: C_11  and  C_12
REMARK    7  A    between atoms: C_25  and  C_26
REMARK    8  A    between atoms: C_33  and  O_34
REMARK                            x       y       z     vdW  Elec       q    Type
REMARK                         _______ _______ _______ _____ _____    ______ ____
ROOT
ATOM      1  C   UNL     1      21.528   6.318 -11.747  0.00  0.00    +0.052 C 
ATOM      2  C   UNL     1      21.249   6.317 -10.435  0.00  0.00    +0.012 C 
ENDROOT
BRANCH   2   3
ATOM      3  C   UNL     1      20.165   5.538  -9.821  0.00  0.00    -0.021 A 
ATOM      4  C   UNL     1      20.196   5.311  -8.441  0.00  0.00    +0.008 A 
ATOM      5  C   UNL     1      19.172   4.599  -7.815  0.00  0.00    +0.004 A 
ATOM      6  C   UNL     1      18.096   4.113  -8.560  0.00  0.00    +0.046 A 
ATOM      7  C   UNL     1      18.040   4.342  -9.934  0.00  0.00    +0.122 A 
ATOM      8  C   UNL     1      19.070   5.059 -10.554  0.00  0.00    +0.053 A 
BRANCH   7   9
ATOM      9  O   UNL     1      17.047   3.929 -10.780  0.00  0.00    -0.486 OA
BRANCH   9  10
ATOM     10  C   UNL     1      17.408   2.982 -11.791  0.00  0.00    +0.284 C 
BRANCH  10  11
ATOM     11  C   UNL     1      16.979   3.489 -13.151  0.00  0.00    +0.079 A 
ATOM     12  C   UNL     1      17.919   3.966 -14.059  0.00  0.00    +0.027 A 
ATOM     13  C   UNL     1      17.487   4.389 -15.311  0.00  0.00    +0.012 A 
ATOM     14  C   UNL     1      16.129   4.321 -15.637  0.00  0.00    +0.000 A 
ATOM     15  C   UNL     1      15.646   4.739 -16.890  0.00  0.00    +0.010 A 
ATOM     16  C   UNL     1      14.286   4.657 -17.184  0.00  0.00    +0.001 A 
ATOM     17  C   UNL     1      13.407   4.158 -16.230  0.00  0.00    +0.002 A 
ATOM     18  C   UNL     1      13.892   3.743 -14.986  0.00  0.00    +0.028 A 
ATOM     19  C   UNL     1      15.242   3.815 -14.666  0.00  0.00    +0.071 A 
ATOM     20  N   UNL     1      15.657   3.401 -13.455  0.00  0.00    -0.248 NA
ENDBRANCH  10  11
ENDBRANCH   9  10
ENDBRANCH   7   9
ENDBRANCH   2   3
BRANCH   1  22
ATOM     21  O   UNL     1      23.805   6.698 -12.325  0.00  0.00    -0.287 OA
ATOM     22  C   UNL     1      22.661   7.136 -12.261  0.00  0.00    +0.190 C 
BRANCH  22  23
ATOM     23  C   UNL     1      22.365   8.496 -12.778  0.00  0.00    +0.064 A 
ATOM     24  C   UNL     1      22.126   8.613 -14.158  0.00  0.00    +0.027 A 
ATOM     25  C   UNL     1      21.849   9.859 -14.738  0.00  0.00    +0.024 A 
ATOM     26  C   UNL     1      21.827  10.995 -13.915  0.00  0.00    +0.015 A 
ATOM     27  C   UNL     1      22.083  10.891 -12.544  0.00  0.00    +0.047 A 
ATOM     28  C   UNL     1      22.358   9.645 -11.979  0.00  0.00    +0.128 A 
BRANCH  25  29
ATOM     29  C   UNL     1      21.589   9.970 -16.168  0.00  0.00    +0.204 A 
ATOM     30  N   UNL     1      20.562   9.306 -16.798  0.00  0.00    -0.108 NA
ATOM     31  N   UNL     1      20.619   9.637 -18.080  0.00  0.00    -0.049 NA
ATOM     32  N   UNL     1      21.659  10.470 -18.166  0.00  0.00    -0.176 N 
ATOM     33  N   UNL     1      22.305  10.728 -17.019  0.00  0.00    -0.133 NA
ATOM     34  H   UNL     1      21.939  10.884 -19.051  0.00  0.00    +0.214 HD
ENDBRANCH  25  29
BRANCH  28  35
ATOM     35  O   UNL     1      22.646   9.572 -10.646  0.00  0.00    -0.506 OA
ATOM     36  H   UNL     1      21.989  10.082 -10.142  0.00  0.00    +0.292 HD
ENDBRANCH  28  35
ENDBRANCH  22  23
ENDBRANCH   1  22
TORSDOF 8
ENDMDL
MODEL 2
REMARK VINA RESULT:   -10.510      3.628      9.092
REMARK INTER + INTRA:         -16.413
REMARK INTER:                 -15.621
REMARK INTRA:                  -0.792
REMARK UNBOUND:                -1.294
REMARK  Name = CHEMBL11533
REMARK  8 active torsions:
REMARK  status: ('A' for Active; 'I' for Inactive)
REMARK    1  A    between atoms: C_2  and  C_3
REMARK    2  A    between atoms: C_2  and  C_23
REMARK    3  A    between atoms: C_4  and  C_5
REMARK    4  A    between atoms: C_9  and  O_10
REMARK    5  A    between atoms: O_10  and  C_11
REMARK    6  A    between atoms: C_11  and  C_12
REMARK    7  A    between atoms: C_25  and  C_26
REMARK    8  A    between atoms: C_33  and  O_34
REMARK                            x       y       z     vdW  Elec       q    Type
REMARK                         _______ _______ _______ _____ _____    ______ ____
ROOT
ATOM      1  C   UNL     1      21.127   7.170 -11.602  0.00  0.00    +0.052 C 
ATOM      2  C   UNL     1      22.309   7.584 -12.082  0.00  0.00    +0.012 C 
ENDROOT
BRANCH   2   3
ATOM      3  C   UNL     1      22.608   8.972 -12.463  0.00  0.00    -0.021 A 
ATOM      4  C   UNL     1      22.425   9.984 -11.515  0.00  0.00    +0.008 A 
ATOM      5  C   UNL     1      22.721  11.311 -11.828  0.00  0.00    +0.004 A 
ATOM      6  C   UNL     1      23.215  11.643 -13.091  0.00  0.00    +0.046 A 
ATOM      7  C   UNL     1      23.418  10.646 -14.044  0.00  0.00    +0.122 A 
ATOM      8  C   UNL     1      23.120   9.317 -13.722  0.00  0.00    +0.053 A 
BRANCH   7   9
ATOM      9  O   UNL     1      23.898  10.828 -15.312  0.00  0.00    -0.486 OA
BRANCH   9  10
ATOM     10  C   UNL     1      23.473   9.893 -16.308  0.00  0.00    +0.284 C 
BRANCH  10  11
ATOM     11  C   UNL     1      22.528  10.566 -17.281  0.00  0.00    +0.079 A 
ATOM     12  C   UNL     1      21.188  10.746 -16.956  0.00  0.00    +0.027 A 
ATOM     13  C   UNL     1      20.361  11.400 -17.863  0.00  0.00    +0.012 A 
ATOM     14  C   UNL     1      20.888  11.868 -19.071  0.00  0.00    +0.000 A 
ATOM     15  C   UNL     1      20.090  12.534 -20.019  0.00  0.00    +0.010 A 
ATOM     16  C   UNL     1      20.646  12.989 -21.212  0.00  0.00    +0.001 A 
ATOM     17  C   UNL     1      21.998  12.783 -21.462  0.00  0.00    +0.002 A 
ATOM     18  C   UNL     1      22.787  12.121 -20.516  0.00  0.00    +0.028 A 
ATOM     19  C   UNL     1      22.259  11.656 -19.319  0.00  0.00    +0.071 A 
ATOM     20  N   UNL     1      23.062  11.026 -18.442  0.00  0.00    -0.248 NA
ENDBRANCH  10  11
ENDBRANCH   9  10
ENDBRANCH   7   9
ENDBRANCH   2   3
BRANCH   1  22
ATOM     21  O   UNL     1      21.524   4.834 -11.821  0.00  0.00    -0.287 OA
ATOM     22  C   UNL     1      20.939   5.740 -11.236  0.00  0.00    +0.190 C 
BRANCH  22  23
ATOM     23  C   UNL     1      20.071   5.423 -10.074  0.00  0.00    +0.064 A 
ATOM     24  C   UNL     1      19.023   4.512 -10.293  0.00  0.00    +0.027 A 
ATOM     25  C   UNL     1      18.146   4.160  -9.257  0.00  0.00    +0.024 A 
ATOM     26  C   UNL     1      18.326   4.745  -7.995  0.00  0.00    +0.015 A 
ATOM     27  C   UNL     1      19.353   5.667  -7.772  0.00  0.00    +0.047 A 
ATOM     28  C   UNL     1      20.219   6.009  -8.811  0.00  0.00    +0.128 A 
BRANCH  25  29
ATOM     29  C   UNL     1      17.069   3.206  -9.489  0.00  0.00    +0.204 A 
ATOM     30  N   UNL     1      16.422   2.542  -8.472  0.00  0.00    -0.108 NA
ATOM     31  N   UNL     1      15.508   1.767  -9.039  0.00  0.00    -0.049 NA
ATOM     32  N   UNL     1      15.643   1.991 -10.348  0.00  0.00    -0.176 N 
ATOM     33  N   UNL     1      16.587   2.876 -10.702  0.00  0.00    -0.133 NA
ATOM     34  H   UNL     1      15.060   1.518 -11.033  0.00  0.00    +0.214 HD
ENDBRANCH  25  29
BRANCH  28  35
ATOM     35  O   UNL     1      21.190   6.942  -8.583  0.00  0.00    -0.506 OA
ATOM     36  H   UNL     1      20.862   7.607  -7.955  0.00  0.00    +0.292 HD
ENDBRANCH  28  35
ENDBRANCH  22  23
ENDBRANCH   1  22
TORSDOF 8
ENDMDL
MODEL 3
REMARK VINA RESULT:    -9.861      4.042      7.395
REMARK INTER + INTRA:         -15.479
REMARK INTER:                 -14.288
REMARK INTRA:                  -1.191
REMARK UNBOUND:                -1.294
REMARK  Name = CHEMBL11533
REMARK  8 active torsions:
REMARK  status: ('A' for Active; 'I' for Inactive)
REMARK    1  A    between atoms: C_2  and  C_3
REMARK    2  A    between atoms: C_2  and  C_23
REMARK    3  A    between atoms: C_4  and  C_5
REMARK    4  A    between atoms: C_9  and  O_10
REMARK    5  A    between atoms: O_10  and  C_11
REMARK    6  A    between atoms: C_11  and  C_12
REMARK    7  A    between atoms: C_25  and  C_26
REMARK    8  A    between atoms: C_33  and  O_34
REMARK                            x       y       z     vdW  Elec       q    Type
REMARK                         _______ _______ _______ _____ _____    ______ ____
ROOT
ATOM      1  C   UNL     1      21.960  10.373 -16.587  0.00  0.00    +0.052 C 
ATOM      2  C   UNL     1      21.250  10.374 -15.449  0.00  0.00    +0.012 C 
ENDROOT
BRANCH   2   3
ATOM      3  C   UNL     1      21.842  10.413 -14.104  0.00  0.00    -0.021 A 
ATOM      4  C   UNL     1      22.467  11.588 -13.677  0.00  0.00    +0.008 A 
ATOM      5  C   UNL     1      23.018  11.675 -12.398  0.00  0.00    +0.004 A 
ATOM      6  C   UNL     1      22.942  10.588 -11.524  0.00  0.00    +0.046 A 
ATOM      7  C   UNL     1      22.310   9.413 -11.927  0.00  0.00    +0.122 A 
ATOM      8  C   UNL     1      21.758   9.335 -13.211  0.00  0.00    +0.053 A 
BRANCH   7   9
ATOM      9  O   UNL     1      22.161   8.280 -11.175  0.00  0.00    -0.486 OA
BRANCH   9  10
ATOM     10  C   UNL     1      21.919   7.059 -11.882  0.00  0.00    +0.284 C 
BRANCH  10  11
ATOM     11  C   UNL     1      20.920   6.211 -11.124  0.00  0.00    +0.079 A 
ATOM     12  C   UNL     1      19.768   5.746 -11.749  0.00  0.00    +0.027 A 
ATOM     13  C   UNL     1      18.893   4.941 -11.028  0.00  0.00    +0.012 A 
ATOM     14  C   UNL     1      19.188   4.608  -9.702  0.00  0.00    +0.000 A 
ATOM     15  C   UNL     1      18.332   3.799  -8.934  0.00  0.00    +0.010 A 
ATOM     16  C   UNL     1      18.656   3.485  -7.615  0.00  0.00    +0.001 A 
ATOM     17  C   UNL     1      19.832   3.977  -7.061  0.00  0.00    +0.002 A 
ATOM     18  C   UNL     1      20.680   4.781  -7.830  0.00  0.00    +0.028 A 
ATOM     19  C   UNL     1      20.381   5.111  -9.145  0.00  0.00    +0.071 A 
ATOM     20  N   UNL     1      21.231   5.887  -9.842  0.00  0.00    -0.248 NA
ENDBRANCH  10  11
ENDBRANCH   9  10
ENDBRANCH   7   9
ENDBRANCH   2   3
BRANCH   1  22
ATOM     21  O   UNL     1      20.489   9.439 -18.207  0.00  0.00    -0.287 OA
ATOM     22  C   UNL     1      21.256  10.346 -17.897  0.00  0.00    +0.190 C 
BRANCH  22  23
ATOM     23  C   UNL     1      21.439  11.498 -18.816  0.00  0.00    +0.064 A 
ATOM     24  C   UNL     1      22.350  12.491 -18.416  0.00  0.00    +0.027 A 
ATOM     25  C   UNL     1      22.581  13.620 -19.215  0.00  0.00    +0.024 A 
ATOM     26  C   UNL     1      21.874  13.748 -20.420  0.00  0.00    +0.015 A 
ATOM     27  C   UNL     1      20.951  12.776 -20.816  0.00  0.00    +0.047 A 
ATOM     28  C   UNL     1      20.730  11.656 -20.013  0.00  0.00    +0.128 A 
BRANCH  25  29
ATOM     29  C   UNL     1      23.536  14.639 -18.800  0.00  0.00    +0.204 A 
ATOM     30  N   UNL     1      23.593  15.138 -17.519  0.00  0.00    -0.108 NA
ATOM     31  N   UNL     1      24.570  16.033 -17.496  0.00  0.00    -0.049 NA
ATOM     32  N   UNL     1      25.050  16.036 -18.742  0.00  0.00    -0.176 N 
ATOM     33  N   UNL     1      24.462  15.194 -19.604  0.00  0.00    -0.133 NA
ATOM     34  H   UNL     1      25.818  16.643 -19.016  0.00  0.00    +0.214 HD
ENDBRANCH  25  29
BRANCH  28  35
ATOM     35  O   UNL     1      19.795  10.739 -20.398  0.00  0.00    -0.506 OA
ATOM     36  H   UNL     1      20.145   9.841 -20.266  0.00  0.00    +0.292 HD
ENDBRANCH  28  35
ENDBRANCH  22  23
ENDBRANCH   1  22
TORSDOF 8
ENDMDL
