MODEL 1
REMARK VINA RESULT:   -13.195      0.000      0.000
REMARK INTER + INTRA:         -19.588
REMARK INTER:                 -18.981
REMARK INTRA:                  -0.607
REMARK UNBOUND:                -0.607
REMARK  Name = CHEMBL11533
REMARK  8 active torsions:
REMARK  status: ('A' for Active; 'I' for Inactive)
REMARK    1  A    between atoms: C_2  and  C_3
REMARK    2  A    between atoms: C_2  and  C_23
REMARK    3  A    between atoms: C_4  and  C_5
REMARK    4  A    between atoms: C_9  and  O_10
REMARK    5  A    between atoms: O_10  and  C_11
REMARK    6  A    between atoms: C_11  and  C_12
REMARK    7  A    between atoms: C_25  and  C_26
REMARK    8  A    between atoms: C_33  and  O_34
REMARK                            x       y       z     vdW  Elec       q    Type
REMARK                         _______ _______ _______ _____ _____    ______ ____
ROOT
ATOM      1  C   UNL     1      -3.801 -12.589 -51.250  0.00  0.00    +0.052 C 
ATOM      2  C   UNL     1      -4.786 -11.900 -51.844  0.00  0.00    +0.012 C 
ENDROOT
BRANCH   2   3
ATOM      3  C   UNL     1      -5.829 -12.507 -52.684  0.00  0.00    -0.021 A 
ATOM      4  C   UNL     1      -6.890 -13.173 -52.064  0.00  0.00    +0.008 A 
ATOM      5  C   UNL     1      -7.914 -13.739 -52.824  0.00  0.00    +0.004 A 
ATOM      6  C   UNL     1      -7.896 -13.638 -54.217  0.00  0.00    +0.046 A 
ATOM      7  C   UNL     1      -6.854 -12.964 -54.852  0.00  0.00    +0.122 A 
ATOM      8  C   UNL     1      -5.831 -12.398 -54.082  0.00  0.00    +0.053 A 
BRANCH   7   9
ATOM      9  O   UNL     1      -6.713 -12.787 -56.201  0.00  0.00    -0.486 OA
BRANCH   9  10
ATOM     10  C   UNL     1      -7.085 -13.883 -57.043  0.00  0.00    +0.284 C 
BRANCH  10  11
ATOM     11  C   UNL     1      -5.911 -14.822 -57.219  0.00  0.00    +0.079 A 
ATOM     12  C   UNL     1      -5.659 -15.824 -56.288  0.00  0.00    +0.027 A 
ATOM     13  C   UNL     1      -4.592 -16.687 -56.505  0.00  0.00    +0.012 A 
ATOM     14  C   UNL     1      -3.802 -16.542 -57.650  0.00  0.00    +0.000 A 
ATOM     15  C   UNL     1      -2.711 -17.391 -57.910  0.00  0.00    +0.010 A 
ATOM     16  C   UNL     1      -1.945 -17.220 -59.061  0.00  0.00    +0.001 A 
ATOM     17  C   UNL     1      -2.265 -16.203 -59.954  0.00  0.00    +0.002 A 
ATOM     18  C   UNL     1      -3.350 -15.362 -59.690  0.00  0.00    +0.028 A 
ATOM     19  C   UNL     1      -4.130 -15.509 -58.551  0.00  0.00    +0.071 A 
ATOM     20  N   UNL     1      -5.165 -14.674 -58.345  0.00  0.00    -0.248 NA
ENDBRANCH  10  11
ENDBRANCH   9  10
ENDBRANCH   7   9
ENDBRANCH   2   3
BRANCH   1  22
ATOM     21  O   UNL     1      -2.402 -10.748 -50.687  0.00  0.00    -0.287 OA
ATOM     22  C   UNL     1      -2.803 -11.874 -50.408  0.00  0.00    +0.190 C 
BRANCH  22  23
ATOM     23  C   UNL     1      -2.346 -12.526 -49.155  0.00  0.00    +0.064 A 
ATOM     24  C   UNL     1      -0.971 -12.466 -48.873  0.00  0.00    +0.027 A 
ATOM     25  C   UNL     1      -0.446 -13.062 -47.717  0.00  0.00    +0.024 A 
ATOM     26  C   UNL     1      -1.320 -13.735 -46.850  0.00  0.00    +0.015 A 
ATOM     27  C   UNL     1      -2.687 -13.818 -47.134  0.00  0.00    +0.047 A 
ATOM     28  C   UNL     1      -3.197 -13.220 -48.287  0.00  0.00    +0.128 A 
BRANCH  25  29
ATOM     29  C   UNL     1       0.979 -12.984 -47.424  0.00  0.00    +0.204 A 
ATOM     30  N   UNL     1       1.935 -13.647 -48.160  0.00  0.00    -0.108 NA
ATOM     31  N   UNL     1       3.109 -13.350 -47.623  0.00  0.00    -0.049 NA
ATOM     32  N   UNL     1       2.817 -12.537 -46.605  0.00  0.00    -0.176 N 
ATOM     33  N   UNL     1       1.517 -12.261 -46.424  0.00  0.00    -0.133 NA
ATOM     34  H   UNL     1       3.542 -12.152 -46.006  0.00  0.00    +0.214 HD
ENDBRANCH  25  29
BRANCH  28  35
ATOM     35  O   UNL     1      -4.528 -13.348 -48.565  0.00  0.00    -0.506 OA
ATOM     36  H   UNL     1      -4.858 -12.524 -48.962  0.00  0.00    +0.292 HD
ENDBRANCH  28  35
ENDBRANCH  22  23
ENDBRANCH   1  22
TORSDOF 8
ENDMDL
MODEL 2
REMARK VINA RESULT:   -12.894      3.754     10.868
REMARK INTER + INTRA:         -19.155
REMARK INTER:                 -17.967
REMARK INTRA:                  -1.188
REMARK UNBOUND:                -0.607
REMARK  Name = CHEMBL11533
REMARK  8 active torsions:
REMARK  status: ('A' for Active; 'I' for Inactive)
REMARK    1  A    between atoms: C_2  and  C_3
REMARK    2  A    between atoms: C_2  and  C_23
REMARK    3  A    between atoms: C_4  and  C_5
REMARK    4  A    between atoms: C_9  and  O_10
REMARK    5  A    between atoms: O_10  and  C_11
REMARK    6  A    between atoms: C_11  and  C_12
REMARK    7  A    between atoms: C_25  and  C_26
REMARK    8  A    between atoms: C_33  and  O_34
REMARK                            x       y       z     vdW  Elec       q    Type
REMARK                         _______ _______ _______ _____ _____    ______ ____
ROOT
ATOM      1  C   UNL     1      -3.099 -16.234 -57.625  0.00  0.00    +0.052 C 
ATOM      2  C   UNL     1      -4.323 -16.621 -57.234  0.00  0.00    +0.012 C 
ENDROOT
BRANCH   2   3
ATOM      3  C   UNL     1      -5.388 -15.699 -56.817  0.00  0.00    -0.021 A 
ATOM      4  C   UNL     1      -6.355 -15.318 -57.752  0.00  0.00    +0.008 A 
ATOM      5  C   UNL     1      -7.398 -14.465 -57.389  0.00  0.00    +0.004 A 
ATOM      6  C   UNL     1      -7.493 -13.988 -56.080  0.00  0.00    +0.046 A 
ATOM      7  C   UNL     1      -6.547 -14.369 -55.129  0.00  0.00    +0.122 A 
ATOM      8  C   UNL     1      -5.505 -15.226 -55.501  0.00  0.00    +0.053 A 
BRANCH   7   9
ATOM      9  O   UNL     1      -6.523 -13.982 -53.817  0.00  0.00    -0.486 OA
BRANCH   9  10
ATOM     10  C   UNL     1      -6.630 -12.581 -53.551  0.00  0.00    +0.284 C 
BRANCH  10  11
ATOM     11  C   UNL     1      -5.464 -12.124 -52.701  0.00  0.00    +0.079 A 
ATOM     12  C   UNL     1      -5.419 -10.829 -52.196  0.00  0.00    +0.027 A 
ATOM     13  C   UNL     1      -4.347 -10.460 -51.391  0.00  0.00    +0.012 A 
ATOM     14  C   UNL     1      -3.346 -11.391 -51.097  0.00  0.00    +0.000 A 
ATOM     15  C   UNL     1      -2.243 -11.063 -50.288  0.00  0.00    +0.010 A 
ATOM     16  C   UNL     1      -1.264 -12.015 -50.014  0.00  0.00    +0.001 A 
ATOM     17  C   UNL     1      -1.382 -13.295 -50.543  0.00  0.00    +0.002 A 
ATOM     18  C   UNL     1      -2.481 -13.616 -51.347  0.00  0.00    +0.028 A 
ATOM     19  C   UNL     1      -3.471 -12.687 -51.638  0.00  0.00    +0.071 A 
ATOM     20  N   UNL     1      -4.509 -13.047 -52.415  0.00  0.00    -0.248 NA
ENDBRANCH  10  11
ENDBRANCH   9  10
ENDBRANCH   7   9
ENDBRANCH   2   3
BRANCH   1  22
ATOM     21  O   UNL     1      -1.437 -17.889 -57.225  0.00  0.00    -0.287 OA
ATOM     22  C   UNL     1      -2.100 -17.255 -58.041  0.00  0.00    +0.190 C 
BRANCH  22  23
ATOM     23  C   UNL     1      -1.966 -17.557 -59.488  0.00  0.00    +0.064 A 
ATOM     24  C   UNL     1      -2.998 -17.105 -60.329  0.00  0.00    +0.027 A 
ATOM     25  C   UNL     1      -2.962 -17.353 -61.710  0.00  0.00    +0.024 A 
ATOM     26  C   UNL     1      -1.881 -18.074 -62.236  0.00  0.00    +0.015 A 
ATOM     27  C   UNL     1      -0.860 -18.545 -61.405  0.00  0.00    +0.047 A 
ATOM     28  C   UNL     1      -0.907 -18.292 -60.034  0.00  0.00    +0.128 A 
BRANCH  25  29
ATOM     29  C   UNL     1      -4.029 -16.870 -62.577  0.00  0.00    +0.204 A 
ATOM     30  N   UNL     1      -4.377 -17.489 -63.756  0.00  0.00    -0.108 NA
ATOM     31  N   UNL     1      -5.377 -16.792 -64.277  0.00  0.00    -0.049 NA
ATOM     32  N   UNL     1      -5.584 -15.801 -63.406  0.00  0.00    -0.176 N 
ATOM     33  N   UNL     1      -4.790 -15.788 -62.325  0.00  0.00    -0.133 NA
ATOM     34  H   UNL     1      -6.304 -15.100 -63.558  0.00  0.00    +0.214 HD
ENDBRANCH  25  29
BRANCH  28  35
ATOM     35  O   UNL     1       0.079 -18.796 -59.234  0.00  0.00    -0.506 OA
ATOM     36  H   UNL     1       0.424 -19.618 -59.621  0.00  0.00    +0.292 HD
ENDBRANCH  28  35
ENDBRANCH  22  23
ENDBRANCH   1  22
TORSDOF 8
ENDMDL
MODEL 3
REMARK VINA RESULT:   -11.719      6.419     12.086
REMARK INTER + INTRA:         -17.465
REMARK INTER:                 -16.278
REMARK INTRA:                  -1.187
REMARK UNBOUND:                -0.607
REMARK  Name = CHEMBL11533
REMARK  8 active torsions:
REMARK  status: ('A' for Active; 'I' for Inactive)
REMARK    1  A    between atoms: C_2  and  C_3
REMARK    2  A    between atoms: C_2  and  C_23
REMARK    3  A    between atoms: C_4  and  C_5
REMARK    4  A    between atoms: C_9  and  O_10
REMARK    5  A    between atoms: O_10  and  C_11
REMARK    6  A    between atoms: C_11  and  C_12
REMARK    7  A    between atoms: C_25  and  C_26
REMARK    8  A    between atoms: C_33  and  O_34
REMARK                            x       y       z     vdW  Elec       q    Type
REMARK                         _______ _______ _______ _____ _____    ______ ____
ROOT
ATOM      1  C   UNL     1      -3.433 -16.889 -61.722  0.00  0.00    +0.052 C 
ATOM      2  C   UNL     1      -2.781 -17.447 -60.691  0.00  0.00    +0.012 C 
ENDROOT
BRANCH   2   3
ATOM      3  C   UNL     1      -2.799 -16.919 -59.319  0.00  0.00    -0.021 A 
ATOM      4  C   UNL     1      -1.777 -17.292 -58.440  0.00  0.00    +0.008 A 
ATOM      5  C   UNL     1      -1.742 -16.792 -57.138  0.00  0.00    +0.004 A 
ATOM      6  C   UNL     1      -2.726 -15.904 -56.699  0.00  0.00    +0.046 A 
ATOM      7  C   UNL     1      -3.745 -15.509 -57.565  0.00  0.00    +0.122 A 
ATOM      8  C   UNL     1      -3.771 -16.014 -58.870  0.00  0.00    +0.053 A 
BRANCH   7   9
ATOM      9  O   UNL     1      -4.765 -14.646 -57.269  0.00  0.00    -0.486 OA
BRANCH   9  10
ATOM     10  C   UNL     1      -6.078 -15.205 -57.166  0.00  0.00    +0.284 C 
BRANCH  10  11
ATOM     11  C   UNL     1      -6.591 -15.063 -55.749  0.00  0.00    +0.079 A 
ATOM     12  C   UNL     1      -5.744 -15.270 -54.665  0.00  0.00    +0.027 A 
ATOM     13  C   UNL     1      -6.246 -15.096 -53.380  0.00  0.00    +0.012 A 
ATOM     14  C   UNL     1      -7.578 -14.711 -53.201  0.00  0.00    +0.000 A 
ATOM     15  C   UNL     1      -8.129 -14.524 -51.920  0.00  0.00    +0.010 A 
ATOM     16  C   UNL     1      -9.460 -14.139 -51.776  0.00  0.00    +0.001 A 
ATOM     17  C   UNL     1     -10.243 -13.938 -52.907  0.00  0.00    +0.002 A 
ATOM     18  C   UNL     1      -9.691 -14.125 -54.178  0.00  0.00    +0.028 A 
ATOM     19  C   UNL     1      -8.368 -14.510 -54.351  0.00  0.00    +0.071 A 
ATOM     20  N   UNL     1      -7.884 -14.674 -55.595  0.00  0.00    -0.248 NA
ENDBRANCH  10  11
ENDBRANCH   9  10
ENDBRANCH   7   9
ENDBRANCH   2   3
BRANCH   1  22
ATOM     21  O   UNL     1      -4.172 -17.267 -63.952  0.00  0.00    -0.287 OA
ATOM     22  C   UNL     1      -3.356 -17.516 -63.069  0.00  0.00    +0.190 C 
BRANCH  22  23
ATOM     23  C   UNL     1      -2.208 -18.411 -63.362  0.00  0.00    +0.064 A 
ATOM     24  C   UNL     1      -0.946 -17.806 -63.486  0.00  0.00    +0.027 A 
ATOM     25  C   UNL     1       0.195 -18.571 -63.771  0.00  0.00    +0.024 A 
ATOM     26  C   UNL     1       0.051 -19.955 -63.944  0.00  0.00    +0.015 A 
ATOM     27  C   UNL     1      -1.204 -20.564 -63.844  0.00  0.00    +0.047 A 
ATOM     28  C   UNL     1      -2.331 -19.792 -63.559  0.00  0.00    +0.128 A 
BRANCH  25  29
ATOM     29  C   UNL     1       1.502 -17.937 -63.885  0.00  0.00    +0.204 A 
ATOM     30  N   UNL     1       2.136 -17.327 -62.826  0.00  0.00    -0.108 NA
ATOM     31  N   UNL     1       3.293 -16.868 -63.282  0.00  0.00    -0.049 NA
ATOM     32  N   UNL     1       3.305 -17.214 -64.572  0.00  0.00    -0.176 N 
ATOM     33  N   UNL     1       2.232 -17.884 -65.015  0.00  0.00    -0.133 NA
ATOM     34  H   UNL     1       4.088 -16.982 -65.178  0.00  0.00    +0.214 HD
ENDBRANCH  25  29
BRANCH  28  35
ATOM     35  O   UNL     1      -3.553 -20.400 -63.505  0.00  0.00    -0.506 OA
ATOM     36  H   UNL     1      -3.457 -21.291 -63.127  0.00  0.00    +0.292 HD
ENDBRANCH  28  35
ENDBRANCH  22  23
ENDBRANCH   1  22
TORSDOF 8
ENDMDL
