MODEL 1
REMARK VINA RESULT:   -12.818      0.000      0.000
REMARK INTER + INTRA:         -19.171
REMARK INTER:                 -18.438
REMARK INTRA:                  -0.733
REMARK UNBOUND:                -0.733
REMARK  Name = CHEMBL11533
REMARK  8 active torsions:
REMARK  status: ('A' for Active; 'I' for Inactive)
REMARK    1  A    between atoms: C_2  and  C_3
REMARK    2  A    between atoms: C_2  and  C_23
REMARK    3  A    between atoms: C_4  and  C_5
REMARK    4  A    between atoms: C_9  and  O_10
REMARK    5  A    between atoms: O_10  and  C_11
REMARK    6  A    between atoms: C_11  and  C_12
REMARK    7  A    between atoms: C_25  and  C_26
REMARK    8  A    between atoms: C_33  and  O_34
REMARK                            x       y       z     vdW  Elec       q    Type
REMARK                         _______ _______ _______ _____ _____    ______ ____
ROOT
ATOM      1  C   UNL     1      -3.821 -12.673 -51.390  0.00  0.00    +0.052 C 
ATOM      2  C   UNL     1      -4.869 -12.027 -51.921  0.00  0.00    +0.012 C 
ENDROOT
BRANCH   2   3
ATOM      3  C   UNL     1      -5.880 -12.658 -52.782  0.00  0.00    -0.021 A 
ATOM      4  C   UNL     1      -6.970 -13.297 -52.184  0.00  0.00    +0.008 A 
ATOM      5  C   UNL     1      -7.965 -13.885 -52.966  0.00  0.00    +0.004 A 
ATOM      6  C   UNL     1      -7.887 -13.834 -54.359  0.00  0.00    +0.046 A 
ATOM      7  C   UNL     1      -6.815 -13.189 -54.974  0.00  0.00    +0.122 A 
ATOM      8  C   UNL     1      -5.822 -12.600 -54.182  0.00  0.00    +0.053 A 
BRANCH   7   9
ATOM      9  O   UNL     1      -6.616 -13.061 -56.322  0.00  0.00    -0.486 OA
BRANCH   9  10
ATOM     10  C   UNL     1      -7.018 -14.161 -57.144  0.00  0.00    +0.284 C 
BRANCH  10  11
ATOM     11  C   UNL     1      -5.868 -15.132 -57.307  0.00  0.00    +0.079 A 
ATOM     12  C   UNL     1      -5.671 -16.157 -56.389  0.00  0.00    +0.027 A 
ATOM     13  C   UNL     1      -4.623 -17.049 -56.594  0.00  0.00    +0.012 A 
ATOM     14  C   UNL     1      -3.800 -16.906 -57.715  0.00  0.00    +0.000 A 
ATOM     15  C   UNL     1      -2.728 -17.783 -57.963  0.00  0.00    +0.010 A 
ATOM     16  C   UNL     1      -1.927 -17.614 -59.090  0.00  0.00    +0.001 A 
ATOM     17  C   UNL     1      -2.192 -16.573 -59.972  0.00  0.00    +0.002 A 
ATOM     18  C   UNL     1      -3.259 -15.704 -59.721  0.00  0.00    +0.028 A 
ATOM     19  C   UNL     1      -4.073 -15.848 -58.604  0.00  0.00    +0.071 A 
ATOM     20  N   UNL     1      -5.087 -14.986 -58.410  0.00  0.00    -0.248 NA
ENDBRANCH  10  11
ENDBRANCH   9  10
ENDBRANCH   7   9
ENDBRANCH   2   3
BRANCH   1  22
ATOM     21  O   UNL     1      -2.552 -10.770 -50.735  0.00  0.00    -0.287 OA
ATOM     22  C   UNL     1      -2.864 -11.937 -50.519  0.00  0.00    +0.190 C 
BRANCH  22  23
ATOM     23  C   UNL     1      -2.339 -12.627 -49.314  0.00  0.00    +0.064 A 
ATOM     24  C   UNL     1      -0.944 -12.637 -49.144  0.00  0.00    +0.027 A 
ATOM     25  C   UNL     1      -0.357 -13.273 -48.041  0.00  0.00    +0.024 A 
ATOM     26  C   UNL     1      -1.190 -13.914 -47.112  0.00  0.00    +0.015 A 
ATOM     27  C   UNL     1      -2.578 -13.928 -47.283  0.00  0.00    +0.047 A 
ATOM     28  C   UNL     1      -3.150 -13.291 -48.385  0.00  0.00    +0.128 A 
BRANCH  25  29
ATOM     29  C   UNL     1       1.090 -13.267 -47.865  0.00  0.00    +0.204 A 
ATOM     30  N   UNL     1       1.947 -13.975 -48.676  0.00  0.00    -0.108 NA
ATOM     31  N   UNL     1       3.175 -13.740 -48.236  0.00  0.00    -0.049 NA
ATOM     32  N   UNL     1       3.008 -12.915 -47.199  0.00  0.00    -0.176 N 
ATOM     33  N   UNL     1       1.743 -12.574 -46.914  0.00  0.00    -0.133 NA
ATOM     34  H   UNL     1       3.798 -12.568 -46.662  0.00  0.00    +0.214 HD
ENDBRANCH  25  29
BRANCH  28  35
ATOM     35  O   UNL     1      -4.503 -13.350 -48.555  0.00  0.00    -0.506 OA
ATOM     36  H   UNL     1      -4.923 -12.605 -48.094  0.00  0.00    +0.292 HD
ENDBRANCH  28  35
ENDBRANCH  22  23
ENDBRANCH   1  22
TORSDOF 8
ENDMDL
MODEL 2
REMARK VINA RESULT:   -12.304      3.934     10.701
REMARK INTER + INTRA:         -18.431
REMARK INTER:                 -17.207
REMARK INTRA:                  -1.224
REMARK UNBOUND:                -0.733
REMARK  Name = CHEMBL11533
REMARK  8 active torsions:
REMARK  status: ('A' for Active; 'I' for Inactive)
REMARK    1  A    between atoms: C_2  and  C_3
REMARK    2  A    between atoms: C_2  and  C_23
REMARK    3  A    between atoms: C_4  and  C_5
REMARK    4  A    between atoms: C_9  and  O_10
REMARK    5  A    between atoms: O_10  and  C_11
REMARK    6  A    between atoms: C_11  and  C_12
REMARK    7  A    between atoms: C_25  and  C_26
REMARK    8  A    between atoms: C_33  and  O_34
REMARK                            x       y       z     vdW  Elec       q    Type
REMARK                         _______ _______ _______ _____ _____    ______ ____
ROOT
ATOM      1  C   UNL     1      -3.612 -17.095 -57.632  0.00  0.00    +0.052 C 
ATOM      2  C   UNL     1      -3.848 -15.841 -57.218  0.00  0.00    +0.012 C 
ENDROOT
BRANCH   2   3
ATOM      3  C   UNL     1      -5.176 -15.324 -56.858  0.00  0.00    -0.021 A 
ATOM      4  C   UNL     1      -6.166 -15.267 -57.844  0.00  0.00    +0.008 A 
ATOM      5  C   UNL     1      -7.448 -14.808 -57.538  0.00  0.00    +0.004 A 
ATOM      6  C   UNL     1      -7.760 -14.409 -56.236  0.00  0.00    +0.046 A 
ATOM      7  C   UNL     1      -6.790 -14.473 -55.237  0.00  0.00    +0.122 A 
ATOM      8  C   UNL     1      -5.508 -14.936 -55.552  0.00  0.00    +0.053 A 
BRANCH   7   9
ATOM      9  O   UNL     1      -6.960 -14.120 -53.926  0.00  0.00    -0.486 OA
BRANCH   9  10
ATOM     10  C   UNL     1      -7.085 -12.724 -53.641  0.00  0.00    +0.284 C 
BRANCH  10  11
ATOM     11  C   UNL     1      -5.882 -12.245 -52.857  0.00  0.00    +0.079 A 
ATOM     12  C   UNL     1      -5.780 -10.916 -52.456  0.00  0.00    +0.027 A 
ATOM     13  C   UNL     1      -4.676 -10.525 -51.708  0.00  0.00    +0.012 A 
ATOM     14  C   UNL     1      -3.700 -11.466 -51.366  0.00  0.00    +0.000 A 
ATOM     15  C   UNL     1      -2.566 -11.116 -50.611  0.00  0.00    +0.010 A 
ATOM     16  C   UNL     1      -1.612 -12.078 -50.286  0.00  0.00    +0.001 A 
ATOM     17  C   UNL     1      -1.788 -13.390 -50.710  0.00  0.00    +0.002 A 
ATOM     18  C   UNL     1      -2.917 -13.733 -51.460  0.00  0.00    +0.028 A 
ATOM     19  C   UNL     1      -3.883 -12.794 -51.800  0.00  0.00    +0.071 A 
ATOM     20  N   UNL     1      -4.952 -13.177 -52.521  0.00  0.00    -0.248 NA
ENDBRANCH  10  11
ENDBRANCH   9  10
ENDBRANCH   7   9
ENDBRANCH   2   3
BRANCH   1  22
ATOM     21  O   UNL     1      -1.377 -17.703 -57.088  0.00  0.00    -0.287 OA
ATOM     22  C   UNL     1      -2.223 -17.516 -57.958  0.00  0.00    +0.190 C 
BRANCH  22  23
ATOM     23  C   UNL     1      -1.887 -17.786 -59.378  0.00  0.00    +0.064 A 
ATOM     24  C   UNL     1      -2.534 -18.875 -59.988  0.00  0.00    +0.027 A 
ATOM     25  C   UNL     1      -2.272 -19.212 -61.324  0.00  0.00    +0.024 A 
ATOM     26  C   UNL     1      -1.339 -18.448 -62.041  0.00  0.00    +0.015 A 
ATOM     27  C   UNL     1      -0.675 -17.376 -61.437  0.00  0.00    +0.047 A 
ATOM     28  C   UNL     1      -0.945 -17.050 -60.107  0.00  0.00    +0.128 A 
BRANCH  25  29
ATOM     29  C   UNL     1      -2.957 -20.334 -61.953  0.00  0.00    +0.204 A 
ATOM     30  N   UNL     1      -2.750 -21.643 -61.583  0.00  0.00    -0.108 NA
ATOM     31  N   UNL     1      -3.531 -22.389 -62.352  0.00  0.00    -0.049 NA
ATOM     32  N   UNL     1      -4.161 -21.514 -63.139  0.00  0.00    -0.176 N 
ATOM     33  N   UNL     1      -3.860 -20.221 -62.945  0.00  0.00    -0.133 NA
ATOM     34  H   UNL     1      -4.831 -21.815 -63.841  0.00  0.00    +0.214 HD
ENDBRANCH  25  29
BRANCH  28  35
ATOM     35  O   UNL     1      -0.256 -16.025 -59.524  0.00  0.00    -0.506 OA
ATOM     36  H   UNL     1      -0.739 -15.192 -59.654  0.00  0.00    +0.292 HD
ENDBRANCH  28  35
ENDBRANCH  22  23
ENDBRANCH   1  22
TORSDOF 8
ENDMDL
MODEL 3
REMARK VINA RESULT:   -11.810      6.299      9.933
REMARK INTER + INTRA:         -17.721
REMARK INTER:                 -16.500
REMARK INTRA:                  -1.221
REMARK UNBOUND:                -0.733
REMARK  Name = CHEMBL11533
REMARK  8 active torsions:
REMARK  status: ('A' for Active; 'I' for Inactive)
REMARK    1  A    between atoms: C_2  and  C_3
REMARK    2  A    between atoms: C_2  and  C_23
REMARK    3  A    between atoms: C_4  and  C_5
REMARK    4  A    between atoms: C_9  and  O_10
REMARK    5  A    between atoms: O_10  and  C_11
REMARK    6  A    between atoms: C_11  and  C_12
REMARK    7  A    between atoms: C_25  and  C_26
REMARK    8  A    between atoms: C_33  and  O_34
REMARK                            x       y       z     vdW  Elec       q    Type
REMARK                         _______ _______ _______ _____ _____    ______ ____
ROOT
ATOM      1  C   UNL     1       0.790 -15.691 -57.727  0.00  0.00    +0.052 C 
ATOM      2  C   UNL     1      -0.111 -16.107 -56.824  0.00  0.00    +0.012 C 
ENDROOT
BRANCH   2   3
ATOM      3  C   UNL     1      -1.336 -16.846 -57.159  0.00  0.00    -0.021 A 
ATOM      4  C   UNL     1      -1.231 -18.190 -57.531  0.00  0.00    +0.008 A 
ATOM      5  C   UNL     1      -2.372 -18.935 -57.831  0.00  0.00    +0.004 A 
ATOM      6  C   UNL     1      -3.637 -18.348 -57.753  0.00  0.00    +0.046 A 
ATOM      7  C   UNL     1      -3.762 -17.013 -57.369  0.00  0.00    +0.122 A 
ATOM      8  C   UNL     1      -2.613 -16.273 -57.069  0.00  0.00    +0.053 A 
BRANCH   7   9
ATOM      9  O   UNL     1      -4.933 -16.316 -57.248  0.00  0.00    -0.486 OA
BRANCH   9  10
ATOM     10  C   UNL     1      -4.886 -15.090 -56.512  0.00  0.00    +0.284 C 
BRANCH  10  11
ATOM     11  C   UNL     1      -5.899 -15.123 -55.387  0.00  0.00    +0.079 A 
ATOM     12  C   UNL     1      -5.580 -15.701 -54.163  0.00  0.00    +0.027 A 
ATOM     13  C   UNL     1      -6.526 -15.679 -53.145  0.00  0.00    +0.012 A 
ATOM     14  C   UNL     1      -7.768 -15.074 -53.363  0.00  0.00    +0.000 A 
ATOM     15  C   UNL     1      -8.756 -15.029 -52.363  0.00  0.00    +0.010 A 
ATOM     16  C   UNL     1      -9.983 -14.417 -52.613  0.00  0.00    +0.001 A 
ATOM     17  C   UNL     1     -10.226 -13.849 -53.858  0.00  0.00    +0.002 A 
ATOM     18  C   UNL     1      -9.240 -13.896 -54.849  0.00  0.00    +0.028 A 
ATOM     19  C   UNL     1      -8.009 -14.501 -54.628  0.00  0.00    +0.071 A 
ATOM     20  N   UNL     1      -7.094 -14.517 -55.614  0.00  0.00    -0.248 NA
ENDBRANCH  10  11
ENDBRANCH   9  10
ENDBRANCH   7   9
ENDBRANCH   2   3
BRANCH   1  22
ATOM     21  O   UNL     1       1.973 -14.148 -56.354  0.00  0.00    -0.287 OA
ATOM     22  C   UNL     1       2.005 -14.960 -57.275  0.00  0.00    +0.190 C 
BRANCH  22  23
ATOM     23  C   UNL     1       3.302 -15.290 -57.917  0.00  0.00    +0.064 A 
ATOM     24  C   UNL     1       3.282 -15.534 -59.301  0.00  0.00    +0.027 A 
ATOM     25  C   UNL     1       4.457 -15.863 -59.992  0.00  0.00    +0.024 A 
ATOM     26  C   UNL     1       5.657 -15.957 -59.272  0.00  0.00    +0.015 A 
ATOM     27  C   UNL     1       5.684 -15.737 -57.891  0.00  0.00    +0.047 A 
ATOM     28  C   UNL     1       4.508 -15.410 -57.216  0.00  0.00    +0.128 A 
BRANCH  25  29
ATOM     29  C   UNL     1       4.430 -16.101 -61.430  0.00  0.00    +0.204 A 
ATOM     30  N   UNL     1       5.375 -15.596 -62.293  0.00  0.00    -0.108 NA
ATOM     31  N   UNL     1       5.047 -16.008 -63.509  0.00  0.00    -0.049 NA
ATOM     32  N   UNL     1       3.938 -16.731 -63.329  0.00  0.00    -0.176 N 
ATOM     33  N   UNL     1       3.500 -16.837 -62.066  0.00  0.00    -0.133 NA
ATOM     34  H   UNL     1       3.459 -17.173 -64.109  0.00  0.00    +0.214 HD
ENDBRANCH  25  29
BRANCH  28  35
ATOM     35  O   UNL     1       4.548 -15.239 -55.861  0.00  0.00    -0.506 OA
ATOM     36  H   UNL     1       5.029 -15.979 -55.453  0.00  0.00    +0.292 HD
ENDBRANCH  28  35
ENDBRANCH  22  23
ENDBRANCH   1  22
TORSDOF 8
ENDMDL
