MODEL 1
REMARK VINA RESULT:   -12.808      0.000      0.000
REMARK INTER + INTRA:         -19.482
REMARK INTER:                 -18.424
REMARK INTRA:                  -1.058
REMARK UNBOUND:                -1.058
REMARK  Name = CHEMBL11533
REMARK  8 active torsions:
REMARK  status: ('A' for Active; 'I' for Inactive)
REMARK    1  A    between atoms: C_2  and  C_3
REMARK    2  A    between atoms: C_2  and  C_23
REMARK    3  A    between atoms: C_4  and  C_5
REMARK    4  A    between atoms: C_9  and  O_10
REMARK    5  A    between atoms: O_10  and  C_11
REMARK    6  A    between atoms: C_11  and  C_12
REMARK    7  A    between atoms: C_25  and  C_26
REMARK    8  A    between atoms: C_33  and  O_34
REMARK                            x       y       z     vdW  Elec       q    Type
REMARK                         _______ _______ _______ _____ _____    ______ ____
ROOT
ATOM      1  C   UNL     1     -31.229  10.137   6.567  0.00  0.00    +0.052 C 
ATOM      2  C   UNL     1     -31.133   8.878   7.021  0.00  0.00    +0.012 C 
ENDROOT
BRANCH   2   3
ATOM      3  C   UNL     1     -32.041   7.788   6.636  0.00  0.00    -0.021 A 
ATOM      4  C   UNL     1     -32.526   7.748   5.325  0.00  0.00    +0.008 A 
ATOM      5  C   UNL     1     -33.369   6.715   4.912  0.00  0.00    +0.004 A 
ATOM      6  C   UNL     1     -33.730   5.702   5.803  0.00  0.00    +0.046 A 
ATOM      7  C   UNL     1     -33.244   5.718   7.109  0.00  0.00    +0.122 A 
ATOM      8  C   UNL     1     -32.398   6.756   7.516  0.00  0.00    +0.053 A 
BRANCH   7   9
ATOM      9  O   UNL     1     -33.513   4.792   8.080  0.00  0.00    -0.486 OA
BRANCH   9  10
ATOM     10  C   UNL     1     -33.814   5.290   9.387  0.00  0.00    +0.284 C 
BRANCH  10  11
ATOM     11  C   UNL     1     -35.137   4.729   9.863  0.00  0.00    +0.079 A 
ATOM     12  C   UNL     1     -36.254   5.550   9.980  0.00  0.00    +0.027 A 
ATOM     13  C   UNL     1     -37.458   4.988  10.388  0.00  0.00    +0.012 A 
ATOM     14  C   UNL     1     -37.529   3.618  10.662  0.00  0.00    +0.000 A 
ATOM     15  C   UNL     1     -38.725   3.007  11.077  0.00  0.00    +0.010 A 
ATOM     16  C   UNL     1     -38.762   1.639  11.341  0.00  0.00    +0.001 A 
ATOM     17  C   UNL     1     -37.608   0.879  11.190  0.00  0.00    +0.002 A 
ATOM     18  C   UNL     1     -36.421   1.492  10.776  0.00  0.00    +0.028 A 
ATOM     19  C   UNL     1     -36.355   2.853  10.508  0.00  0.00    +0.071 A 
ATOM     20  N   UNL     1     -35.189   3.394  10.110  0.00  0.00    -0.248 NA
ENDBRANCH  10  11
ENDBRANCH   9  10
ENDBRANCH   7   9
ENDBRANCH   2   3
BRANCH   1  22
ATOM     21  O   UNL     1     -30.515  11.989   7.878  0.00  0.00    -0.287 OA
ATOM     22  C   UNL     1     -30.246  11.160   7.014  0.00  0.00    +0.190 C 
BRANCH  22  23
ATOM     23  C   UNL     1     -28.877  11.114   6.441  0.00  0.00    +0.064 A 
ATOM     24  C   UNL     1     -28.042  10.069   6.871  0.00  0.00    +0.027 A 
ATOM     25  C   UNL     1     -26.729   9.952   6.391  0.00  0.00    +0.024 A 
ATOM     26  C   UNL     1     -26.258  10.908   5.480  0.00  0.00    +0.015 A 
ATOM     27  C   UNL     1     -27.074  11.963   5.061  0.00  0.00    +0.047 A 
ATOM     28  C   UNL     1     -28.379  12.069   5.546  0.00  0.00    +0.128 A 
BRANCH  25  29
ATOM     29  C   UNL     1     -25.874   8.857   6.833  0.00  0.00    +0.204 A 
ATOM     30  N   UNL     1     -26.356   7.741   7.478  0.00  0.00    -0.108 NA
ATOM     31  N   UNL     1     -25.314   6.960   7.726  0.00  0.00    -0.049 NA
ATOM     32  N   UNL     1     -24.269   7.627   7.230  0.00  0.00    -0.176 N 
ATOM     33  N   UNL     1     -24.541   8.808   6.656  0.00  0.00    -0.133 NA
ATOM     34  H   UNL     1     -23.325   7.256   7.286  0.00  0.00    +0.214 HD
ENDBRANCH  25  29
BRANCH  28  35
ATOM     35  O   UNL     1     -29.145  13.129   5.156  0.00  0.00    -0.506 OA
ATOM     36  H   UNL     1     -29.951  12.806   4.718  0.00  0.00    +0.292 HD
ENDBRANCH  28  35
ENDBRANCH  22  23
ENDBRANCH   1  22
TORSDOF 8
ENDMDL
MODEL 2
REMARK VINA RESULT:   -12.763      2.069      2.790
REMARK INTER + INTRA:         -19.417
REMARK INTER:                 -18.302
REMARK INTRA:                  -1.115
REMARK UNBOUND:                -1.058
REMARK  Name = CHEMBL11533
REMARK  8 active torsions:
REMARK  status: ('A' for Active; 'I' for Inactive)
REMARK    1  A    between atoms: C_2  and  C_3
REMARK    2  A    between atoms: C_2  and  C_23
REMARK    3  A    between atoms: C_4  and  C_5
REMARK    4  A    between atoms: C_9  and  O_10
REMARK    5  A    between atoms: O_10  and  C_11
REMARK    6  A    between atoms: C_11  and  C_12
REMARK    7  A    between atoms: C_25  and  C_26
REMARK    8  A    between atoms: C_33  and  O_34
REMARK                            x       y       z     vdW  Elec       q    Type
REMARK                         _______ _______ _______ _____ _____    ______ ____
ROOT
ATOM      1  C   UNL     1     -31.221  10.183   6.427  0.00  0.00    +0.052 C 
ATOM      2  C   UNL     1     -31.300   8.984   7.024  0.00  0.00    +0.012 C 
ENDROOT
BRANCH   2   3
ATOM      3  C   UNL     1     -32.219   7.914   6.611  0.00  0.00    -0.021 A 
ATOM      4  C   UNL     1     -32.305   7.585   5.255  0.00  0.00    +0.008 A 
ATOM      5  C   UNL     1     -33.145   6.557   4.825  0.00  0.00    +0.004 A 
ATOM      6  C   UNL     1     -33.904   5.836   5.748  0.00  0.00    +0.046 A 
ATOM      7  C   UNL     1     -33.820   6.139   7.107  0.00  0.00    +0.122 A 
ATOM      8  C   UNL     1     -32.974   7.171   7.530  0.00  0.00    +0.053 A 
BRANCH   7   9
ATOM      9  O   UNL     1     -34.501   5.514   8.115  0.00  0.00    -0.486 OA
BRANCH   9  10
ATOM     10  C   UNL     1     -34.728   4.108   7.972  0.00  0.00    +0.284 C 
BRANCH  10  11
ATOM     11  C   UNL     1     -34.173   3.370   9.171  0.00  0.00    +0.079 A 
ATOM     12  C   UNL     1     -34.992   3.058  10.252  0.00  0.00    +0.027 A 
ATOM     13  C   UNL     1     -34.451   2.348  11.318  0.00  0.00    +0.012 A 
ATOM     14  C   UNL     1     -33.110   1.955  11.283  0.00  0.00    +0.000 A 
ATOM     15  C   UNL     1     -32.520   1.236  12.339  0.00  0.00    +0.010 A 
ATOM     16  C   UNL     1     -31.181   0.859  12.272  0.00  0.00    +0.001 A 
ATOM     17  C   UNL     1     -30.428   1.195  11.153  0.00  0.00    +0.002 A 
ATOM     18  C   UNL     1     -31.019   1.909  10.106  0.00  0.00    +0.028 A 
ATOM     19  C   UNL     1     -32.351   2.299  10.147  0.00  0.00    +0.071 A 
ATOM     20  N   UNL     1     -32.872   2.983   9.112  0.00  0.00    -0.248 NA
ENDBRANCH  10  11
ENDBRANCH   9  10
ENDBRANCH   7   9
ENDBRANCH   2   3
BRANCH   1  22
ATOM     21  O   UNL     1     -30.527  11.998   7.799  0.00  0.00    -0.287 OA
ATOM     22  C   UNL     1     -30.244  11.190   6.920  0.00  0.00    +0.190 C 
BRANCH  22  23
ATOM     23  C   UNL     1     -28.864  11.154   6.373  0.00  0.00    +0.064 A 
ATOM     24  C   UNL     1     -28.045  10.088   6.783  0.00  0.00    +0.027 A 
ATOM     25  C   UNL     1     -26.724   9.977   6.326  0.00  0.00    +0.024 A 
ATOM     26  C   UNL     1     -26.227  10.960   5.459  0.00  0.00    +0.015 A 
ATOM     27  C   UNL     1     -27.027  12.036   5.061  0.00  0.00    +0.047 A 
ATOM     28  C   UNL     1     -28.340  12.135   5.522  0.00  0.00    +0.128 A 
BRANCH  25  29
ATOM     29  C   UNL     1     -25.886   8.861   6.746  0.00  0.00    +0.204 A 
ATOM     30  N   UNL     1     -26.349   7.827   7.528  0.00  0.00    -0.108 NA
ATOM     31  N   UNL     1     -25.332   6.997   7.710  0.00  0.00    -0.049 NA
ATOM     32  N   UNL     1     -24.319   7.556   7.044  0.00  0.00    -0.176 N 
ATOM     33  N   UNL     1     -24.590   8.710   6.417  0.00  0.00    -0.133 NA
ATOM     34  H   UNL     1     -23.398   7.127   7.016  0.00  0.00    +0.214 HD
ENDBRANCH  25  29
BRANCH  28  35
ATOM     35  O   UNL     1     -29.091  13.215   5.155  0.00  0.00    -0.506 OA
ATOM     36  H   UNL     1     -29.254  13.188   4.196  0.00  0.00    +0.292 HD
ENDBRANCH  28  35
ENDBRANCH  22  23
ENDBRANCH   1  22
TORSDOF 8
ENDMDL
MODEL 3
REMARK VINA RESULT:   -12.730      4.163      6.763
REMARK INTER + INTRA:         -19.371
REMARK INTER:                 -18.035
REMARK INTRA:                  -1.336
REMARK UNBOUND:                -1.058
REMARK  Name = CHEMBL11533
REMARK  8 active torsions:
REMARK  status: ('A' for Active; 'I' for Inactive)
REMARK    1  A    between atoms: C_2  and  C_3
REMARK    2  A    between atoms: C_2  and  C_23
REMARK    3  A    between atoms: C_4  and  C_5
REMARK    4  A    between atoms: C_9  and  O_10
REMARK    5  A    between atoms: O_10  and  C_11
REMARK    6  A    between atoms: C_11  and  C_12
REMARK    7  A    between atoms: C_25  and  C_26
REMARK    8  A    between atoms: C_33  and  O_34
REMARK                            x       y       z     vdW  Elec       q    Type
REMARK                         _______ _______ _______ _____ _____    ______ ____
ROOT
ATOM      1  C   UNL     1     -31.944   6.341   7.913  0.00  0.00    +0.052 C 
ATOM      2  C   UNL     1     -33.012   5.603   8.249  0.00  0.00    +0.012 C 
ENDROOT
BRANCH   2   3
ATOM      3  C   UNL     1     -32.995   4.535   9.260  0.00  0.00    -0.021 A 
ATOM      4  C   UNL     1     -33.893   4.605  10.329  0.00  0.00    +0.008 A 
ATOM      5  C   UNL     1     -33.926   3.598  11.295  0.00  0.00    +0.004 A 
ATOM      6  C   UNL     1     -33.068   2.502  11.199  0.00  0.00    +0.046 A 
ATOM      7  C   UNL     1     -32.176   2.407  10.131  0.00  0.00    +0.122 A 
ATOM      8  C   UNL     1     -32.149   3.420   9.166  0.00  0.00    +0.053 A 
BRANCH   7   9
ATOM      9  O   UNL     1     -31.286   1.391   9.912  0.00  0.00    -0.486 OA
BRANCH   9  10
ATOM     10  C   UNL     1     -30.631   0.842  11.060  0.00  0.00    +0.284 C 
BRANCH  10  11
ATOM     11  C   UNL     1     -29.340   1.586  11.324  0.00  0.00    +0.079 A 
ATOM     12  C   UNL     1     -28.770   1.587  12.593  0.00  0.00    +0.027 A 
ATOM     13  C   UNL     1     -27.565   2.253  12.786  0.00  0.00    +0.012 A 
ATOM     14  C   UNL     1     -26.947   2.897  11.709  0.00  0.00    +0.000 A 
ATOM     15  C   UNL     1     -25.728   3.584  11.857  0.00  0.00    +0.010 A 
ATOM     16  C   UNL     1     -25.138   4.214  10.763  0.00  0.00    +0.001 A 
ATOM     17  C   UNL     1     -25.761   4.159   9.521  0.00  0.00    +0.002 A 
ATOM     18  C   UNL     1     -26.972   3.475   9.380  0.00  0.00    +0.028 A 
ATOM     19  C   UNL     1     -27.583   2.839  10.453  0.00  0.00    +0.071 A 
ATOM     20  N   UNL     1     -28.747   2.193  10.263  0.00  0.00    -0.248 NA
ENDBRANCH  10  11
ENDBRANCH   9  10
ENDBRANCH   7   9
ENDBRANCH   2   3
BRANCH   1  22
ATOM     21  O   UNL     1     -32.810   7.282   5.906  0.00  0.00    -0.287 OA
ATOM     22  C   UNL     1     -32.079   7.407   6.884  0.00  0.00    +0.190 C 
BRANCH  22  23
ATOM     23  C   UNL     1     -31.357   8.686   7.101  0.00  0.00    +0.064 A 
ATOM     24  C   UNL     1     -29.976   8.689   6.841  0.00  0.00    +0.027 A 
ATOM     25  C   UNL     1     -29.210   9.849   7.027  0.00  0.00    +0.024 A 
ATOM     26  C   UNL     1     -29.847  11.009   7.493  0.00  0.00    +0.015 A 
ATOM     27  C   UNL     1     -31.217  11.010   7.774  0.00  0.00    +0.047 A 
ATOM     28  C   UNL     1     -31.968   9.850   7.584  0.00  0.00    +0.128 A 
BRANCH  25  29
ATOM     29  C   UNL     1     -27.781   9.847   6.743  0.00  0.00    +0.204 A 
ATOM     30  N   UNL     1     -26.847   9.299   7.591  0.00  0.00    -0.108 NA
ATOM     31  N   UNL     1     -25.662   9.469   7.022  0.00  0.00    -0.049 NA
ATOM     32  N   UNL     1     -25.928  10.102   5.877  0.00  0.00    -0.176 N 
ATOM     33  N   UNL     1     -27.220  10.364   5.633  0.00  0.00    -0.133 NA
ATOM     34  H   UNL     1     -25.189  10.365   5.230  0.00  0.00    +0.214 HD
ENDBRANCH  25  29
BRANCH  28  35
ATOM     35  O   UNL     1     -33.296   9.861   7.903  0.00  0.00    -0.506 OA
ATOM     36  H   UNL     1     -33.462   9.235   8.628  0.00  0.00    +0.292 HD
ENDBRANCH  28  35
ENDBRANCH  22  23
ENDBRANCH   1  22
TORSDOF 8
ENDMDL
