MODEL 1
REMARK VINA RESULT:   -12.615      0.000      0.000
REMARK INTER + INTRA:         -19.426
REMARK INTER:                 -18.146
REMARK INTRA:                  -1.280
REMARK UNBOUND:                -1.280
REMARK  Name = CHEMBL11533
REMARK  8 active torsions:
REMARK  status: ('A' for Active; 'I' for Inactive)
REMARK    1  A    between atoms: C_2  and  C_3
REMARK    2  A    between atoms: C_2  and  C_23
REMARK    3  A    between atoms: C_4  and  C_5
REMARK    4  A    between atoms: C_9  and  O_10
REMARK    5  A    between atoms: O_10  and  C_11
REMARK    6  A    between atoms: C_11  and  C_12
REMARK    7  A    between atoms: C_25  and  C_26
REMARK    8  A    between atoms: C_33  and  O_34
REMARK                            x       y       z     vdW  Elec       q    Type
REMARK                         _______ _______ _______ _____ _____    ______ ____
ROOT
ATOM      1  C   UNL     1     -31.250  10.051   6.455  0.00  0.00    +0.052 C 
ATOM      2  C   UNL     1     -31.395   9.112   7.401  0.00  0.00    +0.012 C 
ENDROOT
BRANCH   2   3
ATOM      3  C   UNL     1     -32.194   7.889   7.237  0.00  0.00    -0.021 A 
ATOM      4  C   UNL     1     -32.971   7.742   6.084  0.00  0.00    +0.008 A 
ATOM      5  C   UNL     1     -33.723   6.584   5.877  0.00  0.00    +0.004 A 
ATOM      6  C   UNL     1     -33.701   5.553   6.819  0.00  0.00    +0.046 A 
ATOM      7  C   UNL     1     -32.921   5.676   7.968  0.00  0.00    +0.122 A 
ATOM      8  C   UNL     1     -32.168   6.839   8.167  0.00  0.00    +0.053 A 
BRANCH   7   9
ATOM      9  O   UNL     1     -32.803   4.746   8.965  0.00  0.00    -0.486 OA
BRANCH   9  10
ATOM     10  C   UNL     1     -33.435   5.049  10.213  0.00  0.00    +0.284 C 
BRANCH  10  11
ATOM     11  C   UNL     1     -34.833   4.471  10.239  0.00  0.00    +0.079 A 
ATOM     12  C   UNL     1     -35.057   3.180  10.706  0.00  0.00    +0.027 A 
ATOM     13  C   UNL     1     -36.361   2.698  10.746  0.00  0.00    +0.012 A 
ATOM     14  C   UNL     1     -37.417   3.515  10.328  0.00  0.00    +0.000 A 
ATOM     15  C   UNL     1     -38.751   3.071  10.349  0.00  0.00    +0.010 A 
ATOM     16  C   UNL     1     -39.779   3.910   9.927  0.00  0.00    +0.001 A 
ATOM     17  C   UNL     1     -39.480   5.193   9.484  0.00  0.00    +0.002 A 
ATOM     18  C   UNL     1     -38.152   5.631   9.465  0.00  0.00    +0.028 A 
ATOM     19  C   UNL     1     -37.107   4.815   9.879  0.00  0.00    +0.071 A 
ATOM     20  N   UNL     1     -35.847   5.284   9.842  0.00  0.00    -0.248 NA
ENDBRANCH  10  11
ENDBRANCH   9  10
ENDBRANCH   7   9
ENDBRANCH   2   3
BRANCH   1  22
ATOM     21  O   UNL     1     -30.832  12.225   7.328  0.00  0.00    -0.287 OA
ATOM     22  C   UNL     1     -30.404  11.246   6.724  0.00  0.00    +0.190 C 
BRANCH  22  23
ATOM     23  C   UNL     1     -28.980  11.204   6.309  0.00  0.00    +0.064 A 
ATOM     24  C   UNL     1     -28.229  10.090   6.722  0.00  0.00    +0.027 A 
ATOM     25  C   UNL     1     -26.873   9.970   6.384  0.00  0.00    +0.024 A 
ATOM     26  C   UNL     1     -26.273  10.993   5.635  0.00  0.00    +0.015 A 
ATOM     27  C   UNL     1     -27.006  12.115   5.237  0.00  0.00    +0.047 A 
ATOM     28  C   UNL     1     -28.355  12.223   5.578  0.00  0.00    +0.128 A 
BRANCH  25  29
ATOM     29  C   UNL     1     -26.105   8.806   6.806  0.00  0.00    +0.204 A 
ATOM     30  N   UNL     1     -26.633   7.797   7.579  0.00  0.00    -0.108 NA
ATOM     31  N   UNL     1     -25.668   6.909   7.765  0.00  0.00    -0.049 NA
ATOM     32  N   UNL     1     -24.618   7.411   7.109  0.00  0.00    -0.176 N 
ATOM     33  N   UNL     1     -24.817   8.582   6.486  0.00  0.00    -0.133 NA
ATOM     34  H   UNL     1     -23.724   6.929   7.086  0.00  0.00    +0.214 HD
ENDBRANCH  25  29
BRANCH  28  35
ATOM     35  O   UNL     1     -29.042  13.345   5.215  0.00  0.00    -0.506 OA
ATOM     36  H   UNL     1     -29.236  13.879   6.004  0.00  0.00    +0.292 HD
ENDBRANCH  28  35
ENDBRANCH  22  23
ENDBRANCH   1  22
TORSDOF 8
ENDMDL
MODEL 2
REMARK VINA RESULT:   -12.537      3.813      6.491
REMARK INTER + INTRA:         -19.314
REMARK INTER:                 -18.061
REMARK INTRA:                  -1.252
REMARK UNBOUND:                -1.280
REMARK  Name = CHEMBL11533
REMARK  8 active torsions:
REMARK  status: ('A' for Active; 'I' for Inactive)
REMARK    1  A    between atoms: C_2  and  C_3
REMARK    2  A    between atoms: C_2  and  C_23
REMARK    3  A    between atoms: C_4  and  C_5
REMARK    4  A    between atoms: C_9  and  O_10
REMARK    5  A    between atoms: O_10  and  C_11
REMARK    6  A    between atoms: C_11  and  C_12
REMARK    7  A    between atoms: C_25  and  C_26
REMARK    8  A    between atoms: C_33  and  O_34
REMARK                            x       y       z     vdW  Elec       q    Type
REMARK                         _______ _______ _______ _____ _____    ______ ____
ROOT
ATOM      1  C   UNL     1     -32.402   6.577   7.886  0.00  0.00    +0.052 C 
ATOM      2  C   UNL     1     -33.524   6.015   8.359  0.00  0.00    +0.012 C 
ENDROOT
BRANCH   2   3
ATOM      3  C   UNL     1     -33.551   4.920   9.339  0.00  0.00    -0.021 A 
ATOM      4  C   UNL     1     -34.407   5.021  10.439  0.00  0.00    +0.008 A 
ATOM      5  C   UNL     1     -34.482   3.991  11.378  0.00  0.00    +0.004 A 
ATOM      6  C   UNL     1     -33.707   2.840  11.223  0.00  0.00    +0.046 A 
ATOM      7  C   UNL     1     -32.858   2.714  10.124  0.00  0.00    +0.122 A 
ATOM      8  C   UNL     1     -32.790   3.751   9.186  0.00  0.00    +0.053 A 
BRANCH   7   9
ATOM      9  O   UNL     1     -32.051   1.645   9.848  0.00  0.00    -0.486 OA
BRANCH   9  10
ATOM     10  C   UNL     1     -31.512   0.932  10.965  0.00  0.00    +0.284 C 
BRANCH  10  11
ATOM     11  C   UNL     1     -30.199   1.553  11.391  0.00  0.00    +0.079 A 
ATOM     12  C   UNL     1     -29.716   1.373  12.683  0.00  0.00    +0.027 A 
ATOM     13  C   UNL     1     -28.489   1.931  13.023  0.00  0.00    +0.012 A 
ATOM     14  C   UNL     1     -27.763   2.650  12.068  0.00  0.00    +0.000 A 
ATOM     15  C   UNL     1     -26.519   3.233  12.368  0.00  0.00    +0.010 A 
ATOM     16  C   UNL     1     -25.821   3.943  11.393  0.00  0.00    +0.001 A 
ATOM     17  C   UNL     1     -26.361   4.071  10.118  0.00  0.00    +0.002 A 
ATOM     18  C   UNL     1     -27.599   3.489   9.825  0.00  0.00    +0.028 A 
ATOM     19  C   UNL     1     -28.316   2.778  10.778  0.00  0.00    +0.071 A 
ATOM     20  N   UNL     1     -29.502   2.236  10.445  0.00  0.00    -0.248 NA
ENDBRANCH  10  11
ENDBRANCH   9  10
ENDBRANCH   7   9
ENDBRANCH   2   3
BRANCH   1  22
ATOM     21  O   UNL     1     -33.199   7.624   5.903  0.00  0.00    -0.287 OA
ATOM     22  C   UNL     1     -32.492   7.692   6.904  0.00  0.00    +0.190 C 
BRANCH  22  23
ATOM     23  C   UNL     1     -31.757   8.947   7.199  0.00  0.00    +0.064 A 
ATOM     24  C   UNL     1     -30.381   8.961   6.910  0.00  0.00    +0.027 A 
ATOM     25  C   UNL     1     -29.603  10.100   7.164  0.00  0.00    +0.024 A 
ATOM     26  C   UNL     1     -30.222  11.226   7.728  0.00  0.00    +0.015 A 
ATOM     27  C   UNL     1     -31.585  11.215   8.038  0.00  0.00    +0.047 A 
ATOM     28  C   UNL     1     -32.349  10.076   7.780  0.00  0.00    +0.128 A 
BRANCH  25  29
ATOM     29  C   UNL     1     -28.181  10.111   6.849  0.00  0.00    +0.204 A 
ATOM     30  N   UNL     1     -27.251   9.378   7.550  0.00  0.00    -0.108 NA
ATOM     31  N   UNL     1     -26.071   9.621   6.996  0.00  0.00    -0.049 NA
ATOM     32  N   UNL     1     -26.336  10.475   6.004  0.00  0.00    -0.176 N 
ATOM     33  N   UNL     1     -27.623  10.819   5.849  0.00  0.00    -0.133 NA
ATOM     34  H   UNL     1     -25.602  10.838   5.403  0.00  0.00    +0.214 HD
ENDBRANCH  25  29
BRANCH  28  35
ATOM     35  O   UNL     1     -33.669  10.071   8.128  0.00  0.00    -0.506 OA
ATOM     36  H   UNL     1     -33.753   9.928   9.086  0.00  0.00    +0.292 HD
ENDBRANCH  28  35
ENDBRANCH  22  23
ENDBRANCH   1  22
TORSDOF 8
ENDMDL
MODEL 3
REMARK VINA RESULT:   -12.261      2.921      4.731
REMARK INTER + INTRA:         -18.917
REMARK INTER:                 -17.438
REMARK INTRA:                  -1.479
REMARK UNBOUND:                -1.280
REMARK  Name = CHEMBL11533
REMARK  8 active torsions:
REMARK  status: ('A' for Active; 'I' for Inactive)
REMARK    1  A    between atoms: C_2  and  C_3
REMARK    2  A    between atoms: C_2  and  C_23
REMARK    3  A    between atoms: C_4  and  C_5
REMARK    4  A    between atoms: C_9  and  O_10
REMARK    5  A    between atoms: O_10  and  C_11
REMARK    6  A    between atoms: C_11  and  C_12
REMARK    7  A    between atoms: C_25  and  C_26
REMARK    8  A    between atoms: C_33  and  O_34
REMARK                            x       y       z     vdW  Elec       q    Type
REMARK                         _______ _______ _______ _____ _____    ______ ____
ROOT
ATOM      1  C   UNL     1     -33.022   7.725   7.067  0.00  0.00    +0.052 C 
ATOM      2  C   UNL     1     -33.736   6.984   7.928  0.00  0.00    +0.012 C 
ENDROOT
BRANCH   2   3
ATOM      3  C   UNL     1     -34.333   5.682   7.601  0.00  0.00    -0.021 A 
ATOM      4  C   UNL     1     -34.297   5.238   6.275  0.00  0.00    +0.008 A 
ATOM      5  C   UNL     1     -34.829   3.996   5.927  0.00  0.00    +0.004 A 
ATOM      6  C   UNL     1     -35.397   3.175   6.904  0.00  0.00    +0.046 A 
ATOM      7  C   UNL     1     -35.429   3.594   8.234  0.00  0.00    +0.122 A 
ATOM      8  C   UNL     1     -34.892   4.841   8.574  0.00  0.00    +0.053 A 
BRANCH   7   9
ATOM      9  O   UNL     1     -35.949   2.894   9.287  0.00  0.00    -0.486 OA
BRANCH   9  10
ATOM     10  C   UNL     1     -35.599   1.510   9.383  0.00  0.00    +0.284 C 
BRANCH  10  11
ATOM     11  C   UNL     1     -34.360   1.347  10.238  0.00  0.00    +0.079 A 
ATOM     12  C   UNL     1     -34.309   1.885  11.520  0.00  0.00    +0.027 A 
ATOM     13  C   UNL     1     -33.166   1.683  12.286  0.00  0.00    +0.012 A 
ATOM     14  C   UNL     1     -32.102   0.942  11.764  0.00  0.00    +0.000 A 
ATOM     15  C   UNL     1     -30.926   0.714  12.501  0.00  0.00    +0.010 A 
ATOM     16  C   UNL     1     -29.884  -0.030  11.952  0.00  0.00    +0.001 A 
ATOM     17  C   UNL     1     -30.012  -0.547  10.668  0.00  0.00    +0.002 A 
ATOM     18  C   UNL     1     -31.183  -0.317   9.939  0.00  0.00    +0.028 A 
ATOM     19  C   UNL     1     -32.236   0.421  10.461  0.00  0.00    +0.071 A 
ATOM     20  N   UNL     1     -33.342   0.612   9.719  0.00  0.00    -0.248 NA
ENDBRANCH  10  11
ENDBRANCH   9  10
ENDBRANCH   7   9
ENDBRANCH   2   3
BRANCH   1  22
ATOM     21  O   UNL     1     -33.122   9.867   8.097  0.00  0.00    -0.287 OA
ATOM     22  C   UNL     1     -32.450   9.026   7.509  0.00  0.00    +0.190 C 
BRANCH  22  23
ATOM     23  C   UNL     1     -31.001   9.265   7.291  0.00  0.00    +0.064 A 
ATOM     24  C   UNL     1     -30.117   8.274   7.752  0.00  0.00    +0.027 A 
ATOM     25  C   UNL     1     -28.730   8.418   7.599  0.00  0.00    +0.024 A 
ATOM     26  C   UNL     1     -28.238   9.580   6.987  0.00  0.00    +0.015 A 
ATOM     27  C   UNL     1     -29.108  10.581   6.544  0.00  0.00    +0.047 A 
ATOM     28  C   UNL     1     -30.486  10.426   6.702  0.00  0.00    +0.128 A 
BRANCH  25  29
ATOM     29  C   UNL     1     -27.821   7.380   8.067  0.00  0.00    +0.204 A 
ATOM     30  N   UNL     1     -26.506   7.299   7.670  0.00  0.00    -0.108 NA
ATOM     31  N   UNL     1     -25.981   6.250   8.287  0.00  0.00    -0.049 NA
ATOM     32  N   UNL     1     -26.985   5.752   9.014  0.00  0.00    -0.176 N 
ATOM     33  N   UNL     1     -28.154   6.404   8.932  0.00  0.00    -0.133 NA
ATOM     34  H   UNL     1     -26.863   4.927   9.595  0.00  0.00    +0.214 HD
ENDBRANCH  25  29
BRANCH  28  35
ATOM     35  O   UNL     1     -31.316  11.433   6.300  0.00  0.00    -0.506 OA
ATOM     36  H   UNL     1     -32.000  11.075   5.709  0.00  0.00    +0.292 HD
ENDBRANCH  28  35
ENDBRANCH  22  23
ENDBRANCH   1  22
TORSDOF 8
ENDMDL
