MODEL 1
REMARK VINA RESULT:   -10.738      0.000      0.000
REMARK INTER + INTRA:         -15.985
REMARK INTER:                 -15.132
REMARK INTRA:                  -0.853
REMARK UNBOUND:                -0.853
REMARK  Name = CHEMBL18765
REMARK  7 active torsions:
REMARK  status: ('A' for Active; 'I' for Inactive)
REMARK    1  A    between atoms: C_2  and  C_4
REMARK    2  A    between atoms: C_4  and  C_5
REMARK    3  A    between atoms: C_10  and  C_11
REMARK    4  A    between atoms: C_11  and  N_12
REMARK    5  A    between atoms: C_15  and  C_16
REMARK    6  A    between atoms: C_20  and  C_21
REMARK    7  A    between atoms: C_22  and  C_23
REMARK                            x       y       z     vdW  Elec       q    Type
REMARK                         _______ _______ _______ _____ _____    ______ ____
ROOT
ATOM      1  C   UNL     1      22.042   8.440 -12.453  0.00  0.00    +0.023 A 
ATOM      2  C   UNL     1      22.697   9.277 -11.540  0.00  0.00    +0.012 A 
ATOM      3  C   UNL     1      23.022  10.588 -11.887  0.00  0.00    +0.001 A 
ATOM      4  C   UNL     1      22.699  11.077 -13.154  0.00  0.00    +0.008 A 
ATOM      5  C   UNL     1      22.060  10.256 -14.091  0.00  0.00    -0.024 A 
ATOM      6  C   UNL     1      21.725   8.943 -13.724  0.00  0.00    +0.019 A 
ENDROOT
BRANCH   1  10
ATOM      7  N   UNL     1      20.685   5.346 -11.537  0.00  0.00    -0.158 N 
ATOM      8  N   UNL     1      21.971   4.958 -11.678  0.00  0.00    -0.045 NA
ATOM      9  N   UNL     1      22.623   6.059 -12.025  0.00  0.00    -0.108 NA
ATOM     10  C   UNL     1      21.693   7.071 -12.093  0.00  0.00    +0.205 A 
ATOM     11  N   UNL     1      20.451   6.654 -11.797  0.00  0.00    -0.130 NA
BRANCH   7  12
ATOM     12  C   UNL     1      19.629   4.411 -11.166  0.00  0.00    +0.203 C 
BRANCH  12  18
ATOM     13  C   UNL     1      18.861   3.044  -9.139  0.00  0.00    -0.032 A 
ATOM     14  C   UNL     1      18.898   2.805  -7.752  0.00  0.00    +0.004 A 
ATOM     15  C   UNL     1      19.605   3.642  -6.892  0.00  0.00    +0.000 A 
ATOM     16  C   UNL     1      20.305   4.724  -7.406  0.00  0.00    +0.000 A 
ATOM     17  C   UNL     1      20.295   4.971  -8.779  0.00  0.00    +0.006 A 
ATOM     18  C   UNL     1      19.562   4.155  -9.668  0.00  0.00    -0.021 A 
BRANCH  13  19
ATOM     19  C   UNL     1      18.088   2.065 -10.000  0.00  0.00    +0.160 C 
BRANCH  19  21
ATOM     20  O   UNL     1      16.355   3.176 -11.164  0.00  0.00    -0.246 OA
ATOM     21  C   UNL     1      16.618   2.464 -10.150  0.00  0.00    +0.360 C 
ATOM     22  O   UNL     1      15.849   2.066  -9.229  0.00  0.00    -0.246 OA
ENDBRANCH  19  21
ENDBRANCH  13  19
ENDBRANCH  12  18
ENDBRANCH   7  12
ENDBRANCH   1  10
BRANCH   5  23
ATOM     23  C   UNL     1      21.671  10.738 -15.425  0.00  0.00    +0.010 C 
ATOM     24  C   UNL     1      21.318   9.929 -16.438  0.00  0.00    +0.028 C 
BRANCH  24  25
ATOM     25  C   UNL     1      20.927  10.368 -17.783  0.00  0.00    +0.065 A 
ATOM     26  C   UNL     1      21.055  11.679 -18.223  0.00  0.00    +0.028 A 
ATOM     27  C   UNL     1      20.626  11.998 -19.508  0.00  0.00    +0.012 A 
ATOM     28  C   UNL     1      20.072  11.005 -20.321  0.00  0.00    +0.000 A 
ATOM     29  C   UNL     1      19.626  11.278 -21.626  0.00  0.00    +0.010 A 
ATOM     30  C   UNL     1      19.073  10.265 -22.408  0.00  0.00    +0.001 A 
ATOM     31  C   UNL     1      18.965   8.980 -21.889  0.00  0.00    +0.002 A 
ATOM     32  C   UNL     1      19.409   8.714 -20.590  0.00  0.00    +0.028 A 
ATOM     33  C   UNL     1      19.964   9.703 -19.790  0.00  0.00    +0.072 A 
ATOM     34  N   UNL     1      20.376   9.395 -18.547  0.00  0.00    -0.247 NA
ENDBRANCH  24  25
ENDBRANCH   5  23
TORSDOF 7
ENDMDL
MODEL 2
REMARK VINA RESULT:   -10.051      4.537     11.749
REMARK INTER + INTRA:         -15.018
REMARK INTER:                 -13.856
REMARK INTRA:                  -1.162
REMARK UNBOUND:                -0.853
REMARK  Name = CHEMBL18765
REMARK  7 active torsions:
REMARK  status: ('A' for Active; 'I' for Inactive)
REMARK    1  A    between atoms: C_2  and  C_4
REMARK    2  A    between atoms: C_4  and  C_5
REMARK    3  A    between atoms: C_10  and  C_11
REMARK    4  A    between atoms: C_11  and  N_12
REMARK    5  A    between atoms: C_15  and  C_16
REMARK    6  A    between atoms: C_20  and  C_21
REMARK    7  A    between atoms: C_22  and  C_23
REMARK                            x       y       z     vdW  Elec       q    Type
REMARK                         _______ _______ _______ _____ _____    ______ ____
ROOT
ATOM      1  C   UNL     1      21.899  10.178 -14.904  0.00  0.00    +0.023 A 
ATOM      2  C   UNL     1      22.656  11.225 -14.363  0.00  0.00    +0.012 A 
ATOM      3  C   UNL     1      23.062  11.192 -13.029  0.00  0.00    +0.001 A 
ATOM      4  C   UNL     1      22.710  10.111 -12.218  0.00  0.00    +0.008 A 
ATOM      5  C   UNL     1      21.939   9.060 -12.729  0.00  0.00    -0.024 A 
ATOM      6  C   UNL     1      21.551   9.098 -14.077  0.00  0.00    +0.019 A 
ENDROOT
BRANCH   1  10
ATOM      7  N   UNL     1      21.208  10.693 -18.296  0.00  0.00    -0.158 N 
ATOM      8  N   UNL     1      20.453   9.588 -18.112  0.00  0.00    -0.045 NA
ATOM      9  N   UNL     1      20.615   9.274 -16.834  0.00  0.00    -0.108 NA
ATOM     10  C   UNL     1      21.479  10.203 -16.300  0.00  0.00    +0.205 A 
ATOM     11  N   UNL     1      21.882  11.115 -17.200  0.00  0.00    -0.130 NA
BRANCH   7  12
ATOM     12  C   UNL     1      21.309  11.355 -19.592  0.00  0.00    +0.203 C 
BRANCH  12  18
ATOM     13  C   UNL     1      22.130  13.782 -19.646  0.00  0.00    -0.032 A 
ATOM     14  C   UNL     1      21.843  15.160 -19.648  0.00  0.00    +0.004 A 
ATOM     15  C   UNL     1      20.538  15.628 -19.517  0.00  0.00    +0.000 A 
ATOM     16  C   UNL     1      19.491  14.724 -19.399  0.00  0.00    +0.000 A 
ATOM     17  C   UNL     1      19.751  13.353 -19.410  0.00  0.00    +0.006 A 
ATOM     18  C   UNL     1      21.067  12.855 -19.513  0.00  0.00    -0.021 A 
BRANCH  13  19
ATOM     19  C   UNL     1      23.576  13.365 -19.822  0.00  0.00    +0.160 C 
BRANCH  19  21
ATOM     20  O   UNL     1      23.465  12.739 -22.098  0.00  0.00    -0.246 OA
ATOM     21  C   UNL     1      24.045  13.503 -21.272  0.00  0.00    +0.360 C 
ATOM     22  O   UNL     1      24.976  14.335 -21.466  0.00  0.00    -0.246 OA
ENDBRANCH  19  21
ENDBRANCH  13  19
ENDBRANCH  12  18
ENDBRANCH   7  12
ENDBRANCH   1  10
BRANCH   5  23
ATOM     23  C   UNL     1      21.573   7.887 -11.921  0.00  0.00    +0.010 C 
ATOM     24  C   UNL     1      20.546   7.070 -12.211  0.00  0.00    +0.028 C 
BRANCH  24  25
ATOM     25  C   UNL     1      20.146   5.893 -11.432  0.00  0.00    +0.065 A 
ATOM     26  C   UNL     1      19.663   4.726 -12.009  0.00  0.00    +0.028 A 
ATOM     27  C   UNL     1      19.284   3.676 -11.178  0.00  0.00    +0.012 A 
ATOM     28  C   UNL     1      19.387   3.817  -9.791  0.00  0.00    +0.000 A 
ATOM     29  C   UNL     1      19.018   2.785  -8.911  0.00  0.00    +0.010 A 
ATOM     30  C   UNL     1      19.129   2.961  -7.533  0.00  0.00    +0.001 A 
ATOM     31  C   UNL     1      19.609   4.166  -7.031  0.00  0.00    +0.002 A 
ATOM     32  C   UNL     1      19.974   5.190  -7.911  0.00  0.00    +0.028 A 
ATOM     33  C   UNL     1      19.874   5.041  -9.288  0.00  0.00    +0.072 A 
ATOM     34  N   UNL     1      20.238   6.057 -10.091  0.00  0.00    -0.247 NA
ENDBRANCH  24  25
ENDBRANCH   5  23
TORSDOF 7
ENDMDL
MODEL 3
REMARK VINA RESULT:    -9.573      1.961      2.904
REMARK INTER + INTRA:         -14.343
REMARK INTER:                 -13.504
REMARK INTRA:                  -0.839
REMARK UNBOUND:                -0.853
REMARK  Name = CHEMBL18765
REMARK  7 active torsions:
REMARK  status: ('A' for Active; 'I' for Inactive)
REMARK    1  A    between atoms: C_2  and  C_4
REMARK    2  A    between atoms: C_4  and  C_5
REMARK    3  A    between atoms: C_10  and  C_11
REMARK    4  A    between atoms: C_11  and  N_12
REMARK    5  A    between atoms: C_15  and  C_16
REMARK    6  A    between atoms: C_20  and  C_21
REMARK    7  A    between atoms: C_22  and  C_23
REMARK                            x       y       z     vdW  Elec       q    Type
REMARK                         _______ _______ _______ _____ _____    ______ ____
ROOT
ATOM      1  C   UNL     1      22.167   9.166 -12.502  0.00  0.00    +0.023 A 
ATOM      2  C   UNL     1      22.908   9.868 -11.544  0.00  0.00    +0.012 A 
ATOM      3  C   UNL     1      23.577  11.044 -11.885  0.00  0.00    +0.001 A 
ATOM      4  C   UNL     1      23.513  11.530 -13.192  0.00  0.00    +0.008 A 
ATOM      5  C   UNL     1      22.793  10.839 -14.174  0.00  0.00    -0.024 A 
ATOM      6  C   UNL     1      22.113   9.665 -13.814  0.00  0.00    +0.019 A 
ENDROOT
BRANCH   1  10
ATOM      7  N   UNL     1      20.917   6.107 -11.348  0.00  0.00    -0.158 N 
ATOM      8  N   UNL     1      19.872   6.460 -12.127  0.00  0.00    -0.045 NA
ATOM      9  N   UNL     1      20.216   7.628 -12.650  0.00  0.00    -0.108 NA
ATOM     10  C   UNL     1      21.460   7.940 -12.150  0.00  0.00    +0.205 A 
ATOM     11  N   UNL     1      21.933   7.002 -11.314  0.00  0.00    -0.130 NA
BRANCH   7  12
ATOM     12  C   UNL     1      20.927   4.868 -10.578  0.00  0.00    +0.203 C 
BRANCH  12  18
ATOM     13  C   UNL     1      19.172   3.170 -11.354  0.00  0.00    -0.032 A 
ATOM     14  C   UNL     1      18.806   2.099 -12.190  0.00  0.00    +0.004 A 
ATOM     15  C   UNL     1      19.727   1.507 -13.051  0.00  0.00    +0.000 A 
ATOM     16  C   UNL     1      21.028   1.988 -13.105  0.00  0.00    +0.000 A 
ATOM     17  C   UNL     1      21.407   3.060 -12.296  0.00  0.00    +0.006 A 
ATOM     18  C   UNL     1      20.500   3.658 -11.395  0.00  0.00    -0.021 A 
BRANCH  13  19
ATOM     19  C   UNL     1      18.096   3.769 -10.469  0.00  0.00    +0.160 C 
BRANCH  19  21
ATOM     20  O   UNL     1      16.702   3.153  -8.662  0.00  0.00    -0.246 OA
ATOM     21  C   UNL     1      17.786   2.885  -9.258  0.00  0.00    +0.360 C 
ATOM     22  O   UNL     1      18.664   2.021  -8.977  0.00  0.00    -0.246 OA
ENDBRANCH  19  21
ENDBRANCH  13  19
ENDBRANCH  12  18
ENDBRANCH   7  12
ENDBRANCH   1  10
BRANCH   5  23
ATOM     23  C   UNL     1      22.672  11.330 -15.555  0.00  0.00    +0.010 C 
ATOM     24  C   UNL     1      21.848  10.791 -16.470  0.00  0.00    +0.028 C 
BRANCH  24  25
ATOM     25  C   UNL     1      21.699  11.250 -17.856  0.00  0.00    +0.065 A 
ATOM     26  C   UNL     1      20.497  11.704 -18.383  0.00  0.00    +0.028 A 
ATOM     27  C   UNL     1      20.456  12.089 -19.720  0.00  0.00    +0.012 A 
ATOM     28  C   UNL     1      21.611  12.003 -20.502  0.00  0.00    +0.000 A 
ATOM     29  C   UNL     1      21.619  12.381 -21.857  0.00  0.00    +0.010 A 
ATOM     30  C   UNL     1      22.788  12.277 -22.610  0.00  0.00    +0.001 A 
ATOM     31  C   UNL     1      23.948  11.798 -22.013  0.00  0.00    +0.002 A 
ATOM     32  C   UNL     1      23.935  11.422 -20.665  0.00  0.00    +0.028 A 
ATOM     33  C   UNL     1      22.785  11.516 -19.892  0.00  0.00    +0.072 A 
ATOM     34  N   UNL     1      22.825  11.142 -18.601  0.00  0.00    -0.247 NA
ENDBRANCH  24  25
ENDBRANCH   5  23
TORSDOF 7
ENDMDL
