MODEL 1
REMARK VINA RESULT:   -13.362      0.000      0.000
REMARK INTER + INTRA:         -19.662
REMARK INTER:                 -18.829
REMARK INTRA:                  -0.833
REMARK UNBOUND:                -0.833
REMARK  Name = CHEMBL18765
REMARK  7 active torsions:
REMARK  status: ('A' for Active; 'I' for Inactive)
REMARK    1  A    between atoms: C_2  and  C_4
REMARK    2  A    between atoms: C_4  and  C_5
REMARK    3  A    between atoms: C_10  and  C_11
REMARK    4  A    between atoms: C_11  and  N_12
REMARK    5  A    between atoms: C_15  and  C_16
REMARK    6  A    between atoms: C_20  and  C_21
REMARK    7  A    between atoms: C_22  and  C_23
REMARK                            x       y       z     vdW  Elec       q    Type
REMARK                         _______ _______ _______ _____ _____    ______ ____
ROOT
ATOM      1  C   UNL     1      -5.321 -13.433 -52.876  0.00  0.00    +0.023 A 
ATOM      2  C   UNL     1      -6.677 -13.431 -52.522  0.00  0.00    +0.012 A 
ATOM      3  C   UNL     1      -7.608 -14.147 -53.276  0.00  0.00    +0.001 A 
ATOM      4  C   UNL     1      -7.193 -14.870 -54.396  0.00  0.00    +0.008 A 
ATOM      5  C   UNL     1      -5.847 -14.874 -54.781  0.00  0.00    -0.024 A 
ATOM      6  C   UNL     1      -4.918 -14.163 -54.006  0.00  0.00    +0.019 A 
ENDROOT
BRANCH   1  10
ATOM      7  N   UNL     1      -2.674 -12.127 -50.995  0.00  0.00    -0.158 N 
ATOM      8  N   UNL     1      -3.461 -11.028 -51.008  0.00  0.00    -0.045 NA
ATOM      9  N   UNL     1      -4.535 -11.387 -51.698  0.00  0.00    -0.108 NA
ATOM     10  C   UNL     1      -4.343 -12.693 -52.088  0.00  0.00    +0.205 A 
ATOM     11  N   UNL     1      -3.170 -13.193 -51.666  0.00  0.00    -0.130 NA
BRANCH   7  12
ATOM     12  C   UNL     1      -1.374 -12.141 -50.333  0.00  0.00    +0.203 C 
BRANCH  12  18
ATOM     13  C   UNL     1      -0.258 -12.871 -48.146  0.00  0.00    -0.032 A 
ATOM     14  C   UNL     1      -0.364 -13.420 -46.854  0.00  0.00    +0.004 A 
ATOM     15  C   UNL     1      -1.578 -13.901 -46.369  0.00  0.00    +0.000 A 
ATOM     16  C   UNL     1      -2.715 -13.825 -47.162  0.00  0.00    +0.000 A 
ATOM     17  C   UNL     1      -2.636 -13.270 -48.440  0.00  0.00    +0.006 A 
ATOM     18  C   UNL     1      -1.412 -12.803 -48.965  0.00  0.00    -0.021 A 
BRANCH  13  19
ATOM     19  C   UNL     1       1.097 -12.349 -48.578  0.00  0.00    +0.160 C 
BRANCH  19  21
ATOM     20  O   UNL     1       1.604 -13.906 -50.283  0.00  0.00    -0.246 OA
ATOM     21  C   UNL     1       1.982 -13.452 -49.163  0.00  0.00    +0.360 C 
ATOM     22  O   UNL     1       2.961 -13.803 -48.445  0.00  0.00    -0.246 OA
ENDBRANCH  19  21
ENDBRANCH  13  19
ENDBRANCH  12  18
ENDBRANCH   7  12
ENDBRANCH   1  10
BRANCH   5  23
ATOM     23  C   UNL     1      -5.360 -15.647 -55.933  0.00  0.00    +0.010 C 
ATOM     24  C   UNL     1      -4.306 -15.286 -56.684  0.00  0.00    +0.028 C 
BRANCH  24  25
ATOM     25  C   UNL     1      -3.790 -16.027 -57.842  0.00  0.00    +0.065 A 
ATOM     26  C   UNL     1      -3.826 -15.533 -59.139  0.00  0.00    +0.028 A 
ATOM     27  C   UNL     1      -3.336 -16.328 -60.171  0.00  0.00    +0.012 A 
ATOM     28  C   UNL     1      -2.831 -17.600 -59.886  0.00  0.00    +0.000 A 
ATOM     29  C   UNL     1      -2.325 -18.440 -60.894  0.00  0.00    +0.010 A 
ATOM     30  C   UNL     1      -1.834 -19.705 -60.576  0.00  0.00    +0.001 A 
ATOM     31  C   UNL     1      -1.846 -20.133 -59.254  0.00  0.00    +0.002 A 
ATOM     32  C   UNL     1      -2.352 -19.295 -58.255  0.00  0.00    +0.028 A 
ATOM     33  C   UNL     1      -2.847 -18.030 -58.544  0.00  0.00    +0.072 A 
ATOM     34  N   UNL     1      -3.322 -17.262 -57.546  0.00  0.00    -0.247 NA
ENDBRANCH  24  25
ENDBRANCH   5  23
TORSDOF 7
ENDMDL
MODEL 2
REMARK VINA RESULT:   -11.922      1.635      2.393
REMARK INTER + INTRA:         -17.633
REMARK INTER:                 -16.986
REMARK INTRA:                  -0.648
REMARK UNBOUND:                -0.833
REMARK  Name = CHEMBL18765
REMARK  7 active torsions:
REMARK  status: ('A' for Active; 'I' for Inactive)
REMARK    1  A    between atoms: C_2  and  C_4
REMARK    2  A    between atoms: C_4  and  C_5
REMARK    3  A    between atoms: C_10  and  C_11
REMARK    4  A    between atoms: C_11  and  N_12
REMARK    5  A    between atoms: C_15  and  C_16
REMARK    6  A    between atoms: C_20  and  C_21
REMARK    7  A    between atoms: C_22  and  C_23
REMARK                            x       y       z     vdW  Elec       q    Type
REMARK                         _______ _______ _______ _____ _____    ______ ____
ROOT
ATOM      1  C   UNL     1      -4.863 -14.016 -53.103  0.00  0.00    +0.023 A 
ATOM      2  C   UNL     1      -6.202 -13.772 -52.774  0.00  0.00    +0.012 A 
ATOM      3  C   UNL     1      -7.226 -14.130 -53.652  0.00  0.00    +0.001 A 
ATOM      4  C   UNL     1      -6.920 -14.734 -54.873  0.00  0.00    +0.008 A 
ATOM      5  C   UNL     1      -5.589 -14.974 -55.234  0.00  0.00    -0.024 A 
ATOM      6  C   UNL     1      -4.570 -14.622 -54.335  0.00  0.00    +0.019 A 
ENDROOT
BRANCH   1  10
ATOM      7  N   UNL     1      -2.569 -12.666 -50.831  0.00  0.00    -0.158 N 
ATOM      8  N   UNL     1      -1.939 -13.838 -51.066  0.00  0.00    -0.045 NA
ATOM      9  N   UNL     1      -2.711 -14.469 -51.940  0.00  0.00    -0.108 NA
ATOM     10  C   UNL     1      -3.790 -13.651 -52.187  0.00  0.00    +0.205 A 
ATOM     11  N   UNL     1      -3.738 -12.501 -51.495  0.00  0.00    -0.130 NA
BRANCH   7  12
ATOM     12  C   UNL     1      -2.038 -11.674 -49.902  0.00  0.00    +0.203 C 
BRANCH  12  18
ATOM     13  C   UNL     1      -0.610 -12.441 -47.918  0.00  0.00    -0.032 A 
ATOM     14  C   UNL     1       0.623 -12.897 -47.415  0.00  0.00    +0.004 A 
ATOM     15  C   UNL     1       1.745 -13.000 -48.234  0.00  0.00    +0.000 A 
ATOM     16  C   UNL     1       1.650 -12.667 -49.578  0.00  0.00    +0.000 A 
ATOM     17  C   UNL     1       0.433 -12.228 -50.101  0.00  0.00    +0.006 A 
ATOM     18  C   UNL     1      -0.711 -12.088 -49.286  0.00  0.00    -0.021 A 
BRANCH  13  19
ATOM     19  C   UNL     1      -1.783 -12.387 -46.960  0.00  0.00    +0.160 C 
BRANCH  19  21
ATOM     20  O   UNL     1      -3.628 -13.756 -47.517  0.00  0.00    -0.246 OA
ATOM     21  C   UNL     1      -2.531 -13.720 -46.886  0.00  0.00    +0.360 C 
ATOM     22  O   UNL     1      -1.984 -14.613 -46.177  0.00  0.00    -0.246 OA
ENDBRANCH  19  21
ENDBRANCH  13  19
ENDBRANCH  12  18
ENDBRANCH   7  12
ENDBRANCH   1  10
BRANCH   5  23
ATOM     23  C   UNL     1      -5.221 -15.637 -56.494  0.00  0.00    +0.010 C 
ATOM     24  C   UNL     1      -4.020 -15.510 -57.083  0.00  0.00    +0.028 C 
BRANCH  24  25
ATOM     25  C   UNL     1      -3.615 -16.151 -58.340  0.00  0.00    +0.065 A 
ATOM     26  C   UNL     1      -3.760 -15.549 -59.583  0.00  0.00    +0.028 A 
ATOM     27  C   UNL     1      -3.370 -16.256 -60.717  0.00  0.00    +0.012 A 
ATOM     28  C   UNL     1      -2.854 -17.548 -60.586  0.00  0.00    +0.000 A 
ATOM     29  C   UNL     1      -2.447 -18.300 -61.702  0.00  0.00    +0.010 A 
ATOM     30  C   UNL     1      -1.941 -19.588 -61.536  0.00  0.00    +0.001 A 
ATOM     31  C   UNL     1      -1.841 -20.127 -60.258  0.00  0.00    +0.002 A 
ATOM     32  C   UNL     1      -2.249 -19.375 -59.151  0.00  0.00    +0.028 A 
ATOM     33  C   UNL     1      -2.755 -18.089 -59.288  0.00  0.00    +0.072 A 
ATOM     34  N   UNL     1      -3.134 -17.408 -58.191  0.00  0.00    -0.247 NA
ENDBRANCH  24  25
ENDBRANCH   5  23
TORSDOF 7
ENDMDL
MODEL 3
REMARK VINA RESULT:   -11.805      3.606     10.180
REMARK INTER + INTRA:         -17.469
REMARK INTER:                 -16.590
REMARK INTRA:                  -0.879
REMARK UNBOUND:                -0.833
REMARK  Name = CHEMBL18765
REMARK  7 active torsions:
REMARK  status: ('A' for Active; 'I' for Inactive)
REMARK    1  A    between atoms: C_2  and  C_4
REMARK    2  A    between atoms: C_4  and  C_5
REMARK    3  A    between atoms: C_10  and  C_11
REMARK    4  A    between atoms: C_11  and  N_12
REMARK    5  A    between atoms: C_15  and  C_16
REMARK    6  A    between atoms: C_20  and  C_21
REMARK    7  A    between atoms: C_22  and  C_23
REMARK                            x       y       z     vdW  Elec       q    Type
REMARK                         _______ _______ _______ _____ _____    ______ ____
ROOT
ATOM      1  C   UNL     1      -5.831 -14.697 -55.623  0.00  0.00    +0.023 A 
ATOM      2  C   UNL     1      -7.221 -14.803 -55.489  0.00  0.00    +0.012 A 
ATOM      3  C   UNL     1      -7.842 -14.505 -54.275  0.00  0.00    +0.001 A 
ATOM      4  C   UNL     1      -7.077 -14.100 -53.180  0.00  0.00    +0.008 A 
ATOM      5  C   UNL     1      -5.684 -14.002 -53.282  0.00  0.00    -0.024 A 
ATOM      6  C   UNL     1      -5.073 -14.291 -54.512  0.00  0.00    +0.019 A 
ENDROOT
BRANCH   1  10
ATOM      7  N   UNL     1      -3.810 -15.528 -58.357  0.00  0.00    -0.158 N 
ATOM      8  N   UNL     1      -4.946 -15.252 -59.035  0.00  0.00    -0.045 NA
ATOM      9  N   UNL     1      -5.822 -14.906 -58.102  0.00  0.00    -0.108 NA
ATOM     10  C   UNL     1      -5.177 -15.001 -56.890  0.00  0.00    +0.205 A 
ATOM     11  N   UNL     1      -3.901 -15.400 -57.013  0.00  0.00    -0.130 NA
BRANCH   7  12
ATOM     12  C   UNL     1      -2.592 -15.963 -59.032  0.00  0.00    +0.203 C 
BRANCH  12  18
ATOM     13  C   UNL     1      -2.546 -18.240 -60.207  0.00  0.00    -0.032 A 
ATOM     14  C   UNL     1      -2.292 -19.624 -60.162  0.00  0.00    +0.004 A 
ATOM     15  C   UNL     1      -1.920 -20.253 -58.976  0.00  0.00    +0.000 A 
ATOM     16  C   UNL     1      -1.777 -19.505 -57.815  0.00  0.00    +0.000 A 
ATOM     17  C   UNL     1      -2.009 -18.130 -57.841  0.00  0.00    +0.006 A 
ATOM     18  C   UNL     1      -2.415 -17.474 -59.023  0.00  0.00    -0.021 A 
BRANCH  13  19
ATOM     19  C   UNL     1      -2.919 -17.638 -61.547  0.00  0.00    +0.160 C 
BRANCH  19  21
ATOM     20  O   UNL     1      -2.001 -17.507 -63.721  0.00  0.00    -0.246 OA
ATOM     21  C   UNL     1      -1.717 -17.532 -62.487  0.00  0.00    +0.360 C 
ATOM     22  O   UNL     1      -0.585 -17.518 -61.925  0.00  0.00    -0.246 OA
ENDBRANCH  19  21
ENDBRANCH  13  19
ENDBRANCH  12  18
ENDBRANCH   7  12
ENDBRANCH   1  10
BRANCH   5  23
ATOM     23  C   UNL     1      -4.842 -13.548 -52.165  0.00  0.00    +0.010 C 
ATOM     24  C   UNL     1      -3.521 -13.780 -52.083  0.00  0.00    +0.028 C 
BRANCH  24  25
ATOM     25  C   UNL     1      -2.646 -13.347 -50.986  0.00  0.00    +0.065 A 
ATOM     26  C   UNL     1      -3.062 -12.493 -49.972  0.00  0.00    +0.028 A 
ATOM     27  C   UNL     1      -2.145 -12.121 -48.994  0.00  0.00    +0.012 A 
ATOM     28  C   UNL     1      -0.833 -12.600 -49.054  0.00  0.00    +0.000 A 
ATOM     29  C   UNL     1       0.128 -12.252 -48.089  0.00  0.00    +0.010 A 
ATOM     30  C   UNL     1       1.429 -12.745 -48.182  0.00  0.00    +0.001 A 
ATOM     31  C   UNL     1       1.771 -13.584 -49.236  0.00  0.00    +0.002 A 
ATOM     32  C   UNL     1       0.811 -13.925 -50.195  0.00  0.00    +0.028 A 
ATOM     33  C   UNL     1      -0.491 -13.450 -50.126  0.00  0.00    +0.072 A 
ATOM     34  N   UNL     1      -1.377 -13.809 -51.073  0.00  0.00    -0.247 NA
ENDBRANCH  24  25
ENDBRANCH   5  23
TORSDOF 7
ENDMDL
