MODEL 1
REMARK VINA RESULT:   -12.345      0.000      0.000
REMARK INTER + INTRA:         -18.572
REMARK INTER:                 -17.397
REMARK INTRA:                  -1.175
REMARK UNBOUND:                -1.175
REMARK  Name = CHEMBL18765
REMARK  7 active torsions:
REMARK  status: ('A' for Active; 'I' for Inactive)
REMARK    1  A    between atoms: C_2  and  C_4
REMARK    2  A    between atoms: C_4  and  C_5
REMARK    3  A    between atoms: C_10  and  C_11
REMARK    4  A    between atoms: C_11  and  N_12
REMARK    5  A    between atoms: C_15  and  C_16
REMARK    6  A    between atoms: C_20  and  C_21
REMARK    7  A    between atoms: C_22  and  C_23
REMARK                            x       y       z     vdW  Elec       q    Type
REMARK                         _______ _______ _______ _____ _____    ______ ____
ROOT
ATOM      1  C   UNL     1     -34.324   3.551   9.130  0.00  0.00    +0.023 A 
ATOM      2  C   UNL     1     -35.720   3.534   9.252  0.00  0.00    +0.012 A 
ATOM      3  C   UNL     1     -36.478   4.647   8.888  0.00  0.00    +0.001 A 
ATOM      4  C   UNL     1     -35.847   5.794   8.401  0.00  0.00    +0.008 A 
ATOM      5  C   UNL     1     -34.453   5.844   8.285  0.00  0.00    -0.024 A 
ATOM      6  C   UNL     1     -33.703   4.712   8.641  0.00  0.00    +0.019 A 
ENDROOT
BRANCH   1  10
ATOM      7  N   UNL     1     -31.977   1.106  10.001  0.00  0.00    -0.158 N 
ATOM      8  N   UNL     1     -33.081   0.328  10.019  0.00  0.00    -0.045 NA
ATOM      9  N   UNL     1     -34.076   1.141   9.691  0.00  0.00    -0.108 NA
ATOM     10  C   UNL     1     -33.528   2.389   9.501  0.00  0.00    +0.205 A 
ATOM     11  N   UNL     1     -32.199   2.406   9.696  0.00  0.00    -0.130 NA
BRANCH   7  12
ATOM     12  C   UNL     1     -30.654   0.582  10.321  0.00  0.00    +0.203 C 
BRANCH  12  18
ATOM     13  C   UNL     1     -28.982   1.419  12.072  0.00  0.00    -0.032 A 
ATOM     14  C   UNL     1     -28.679   1.724  13.413  0.00  0.00    +0.004 A 
ATOM     15  C   UNL     1     -29.591   1.471  14.436  0.00  0.00    +0.000 A 
ATOM     16  C   UNL     1     -30.830   0.925  14.134  0.00  0.00    +0.000 A 
ATOM     17  C   UNL     1     -31.157   0.630  12.810  0.00  0.00    +0.006 A 
ATOM     18  C   UNL     1     -30.240   0.850  11.759  0.00  0.00    -0.021 A 
BRANCH  13  19
ATOM     19  C   UNL     1     -27.940   1.754  11.024  0.00  0.00    +0.160 C 
BRANCH  19  21
ATOM     20  O   UNL     1     -28.897   3.591   9.885  0.00  0.00    -0.246 OA
ATOM     21  C   UNL     1     -27.952   3.238  10.650  0.00  0.00    +0.360 C 
ATOM     22  O   UNL     1     -27.001   3.925  11.120  0.00  0.00    -0.246 OA
ENDBRANCH  19  21
ENDBRANCH  13  19
ENDBRANCH  12  18
ENDBRANCH   7  12
ENDBRANCH   1  10
BRANCH   5  23
ATOM     23  C   UNL     1     -33.748   7.017   7.748  0.00  0.00    +0.010 C 
ATOM     24  C   UNL     1     -32.728   7.628   8.373  0.00  0.00    +0.028 C 
BRANCH  24  25
ATOM     25  C   UNL     1     -32.001   8.801   7.872  0.00  0.00    +0.065 A 
ATOM     26  C   UNL     1     -32.553  10.075   7.823  0.00  0.00    +0.028 A 
ATOM     27  C   UNL     1     -31.788  11.114   7.302  0.00  0.00    +0.012 A 
ATOM     28  C   UNL     1     -30.495  10.859   6.836  0.00  0.00    +0.000 A 
ATOM     29  C   UNL     1     -29.684  11.876   6.302  0.00  0.00    +0.010 A 
ATOM     30  C   UNL     1     -28.402  11.585   5.841  0.00  0.00    +0.001 A 
ATOM     31  C   UNL     1     -27.927  10.281   5.912  0.00  0.00    +0.002 A 
ATOM     32  C   UNL     1     -28.738   9.272   6.442  0.00  0.00    +0.028 A 
ATOM     33  C   UNL     1     -30.019   9.534   6.909  0.00  0.00    +0.072 A 
ATOM     34  N   UNL     1     -30.758   8.528   7.410  0.00  0.00    -0.247 NA
ENDBRANCH  24  25
ENDBRANCH   5  23
TORSDOF 7
ENDMDL
MODEL 2
REMARK VINA RESULT:   -11.757      1.696      2.408
REMARK INTER + INTRA:         -17.743
REMARK INTER:                 -16.759
REMARK INTRA:                  -0.984
REMARK UNBOUND:                -1.175
REMARK  Name = CHEMBL18765
REMARK  7 active torsions:
REMARK  status: ('A' for Active; 'I' for Inactive)
REMARK    1  A    between atoms: C_2  and  C_4
REMARK    2  A    between atoms: C_4  and  C_5
REMARK    3  A    between atoms: C_10  and  C_11
REMARK    4  A    between atoms: C_11  and  N_12
REMARK    5  A    between atoms: C_15  and  C_16
REMARK    6  A    between atoms: C_20  and  C_21
REMARK    7  A    between atoms: C_22  and  C_23
REMARK                            x       y       z     vdW  Elec       q    Type
REMARK                         _______ _______ _______ _____ _____    ______ ____
ROOT
ATOM      1  C   UNL     1     -33.983   3.749   9.210  0.00  0.00    +0.023 A 
ATOM      2  C   UNL     1     -35.246   3.369   8.738  0.00  0.00    +0.012 A 
ATOM      3  C   UNL     1     -35.980   4.219   7.911  0.00  0.00    +0.001 A 
ATOM      4  C   UNL     1     -35.460   5.463   7.548  0.00  0.00    +0.008 A 
ATOM      5  C   UNL     1     -34.207   5.874   8.019  0.00  0.00    -0.024 A 
ATOM      6  C   UNL     1     -33.472   5.003   8.839  0.00  0.00    +0.019 A 
ENDROOT
BRANCH   1  10
ATOM      7  N   UNL     1     -31.750   1.617  10.858  0.00  0.00    -0.158 N 
ATOM      8  N   UNL     1     -32.707   1.666  11.810  0.00  0.00    -0.045 NA
ATOM      9  N   UNL     1     -33.647   2.454  11.307  0.00  0.00    -0.108 NA
ATOM     10  C   UNL     1     -33.208   2.862  10.068  0.00  0.00    +0.205 A 
ATOM     11  N   UNL     1     -32.004   2.356   9.753  0.00  0.00    -0.130 NA
BRANCH   7  12
ATOM     12  C   UNL     1     -30.522   0.849  11.033  0.00  0.00    +0.203 C 
BRANCH  12  18
ATOM     13  C   UNL     1     -28.788   1.762  12.684  0.00  0.00    -0.032 A 
ATOM     14  C   UNL     1     -27.626   2.518  12.929  0.00  0.00    +0.004 A 
ATOM     15  C   UNL     1     -26.995   3.226  11.909  0.00  0.00    +0.000 A 
ATOM     16  C   UNL     1     -27.504   3.176  10.619  0.00  0.00    +0.000 A 
ATOM     17  C   UNL     1     -28.646   2.421  10.351  0.00  0.00    +0.006 A 
ATOM     18  C   UNL     1     -29.320   1.718  11.373  0.00  0.00    -0.021 A 
BRANCH  13  19
ATOM     19  C   UNL     1     -29.391   1.003  13.849  0.00  0.00    +0.160 C 
BRANCH  19  21
ATOM     20  O   UNL     1     -27.682  -0.446  14.603  0.00  0.00    -0.246 OA
ATOM     21  C   UNL     1     -28.793  -0.398  13.997  0.00  0.00    +0.360 C 
ATOM     22  O   UNL     1     -29.458  -1.333  13.468  0.00  0.00    -0.246 OA
ENDBRANCH  19  21
ENDBRANCH  13  19
ENDBRANCH  12  18
ENDBRANCH   7  12
ENDBRANCH   1  10
BRANCH   5  23
ATOM     23  C   UNL     1     -33.605   7.161   7.637  0.00  0.00    +0.010 C 
ATOM     24  C   UNL     1     -32.315   7.472   7.842  0.00  0.00    +0.028 C 
BRANCH  24  25
ATOM     25  C   UNL     1     -31.677   8.743   7.479  0.00  0.00    +0.065 A 
ATOM     26  C   UNL     1     -32.321   9.971   7.565  0.00  0.00    +0.028 A 
ATOM     27  C   UNL     1     -31.636  11.115   7.168  0.00  0.00    +0.012 A 
ATOM     28  C   UNL     1     -30.328  11.008   6.685  0.00  0.00    +0.000 A 
ATOM     29  C   UNL     1     -29.595  12.135   6.273  0.00  0.00    +0.010 A 
ATOM     30  C   UNL     1     -28.295  11.992   5.793  0.00  0.00    +0.001 A 
ATOM     31  C   UNL     1     -27.724  10.726   5.723  0.00  0.00    +0.002 A 
ATOM     32  C   UNL     1     -28.458   9.608   6.133  0.00  0.00    +0.028 A 
ATOM     33  C   UNL     1     -29.755   9.722   6.617  0.00  0.00    +0.072 A 
ATOM     34  N   UNL     1     -30.417   8.615   6.999  0.00  0.00    -0.247 NA
ENDBRANCH  24  25
ENDBRANCH   5  23
TORSDOF 7
ENDMDL
MODEL 3
REMARK VINA RESULT:   -11.740      2.955      7.230
REMARK INTER + INTRA:         -17.719
REMARK INTER:                 -17.497
REMARK INTRA:                  -0.223
REMARK UNBOUND:                -1.175
REMARK  Name = CHEMBL18765
REMARK  7 active torsions:
REMARK  status: ('A' for Active; 'I' for Inactive)
REMARK    1  A    between atoms: C_2  and  C_4
REMARK    2  A    between atoms: C_4  and  C_5
REMARK    3  A    between atoms: C_10  and  C_11
REMARK    4  A    between atoms: C_11  and  N_12
REMARK    5  A    between atoms: C_15  and  C_16
REMARK    6  A    between atoms: C_20  and  C_21
REMARK    7  A    between atoms: C_22  and  C_23
REMARK                            x       y       z     vdW  Elec       q    Type
REMARK                         _______ _______ _______ _____ _____    ______ ____
ROOT
ATOM      1  C   UNL     1     -29.681   8.458   7.691  0.00  0.00    +0.023 A 
ATOM      2  C   UNL     1     -29.742   9.827   7.400  0.00  0.00    +0.012 A 
ATOM      3  C   UNL     1     -30.971  10.483   7.326  0.00  0.00    +0.001 A 
ATOM      4  C   UNL     1     -32.155   9.775   7.539  0.00  0.00    +0.008 A 
ATOM      5  C   UNL     1     -32.123   8.403   7.814  0.00  0.00    -0.024 A 
ATOM      6  C   UNL     1     -30.880   7.758   7.901  0.00  0.00    +0.019 A 
ENDROOT
BRANCH   1  10
ATOM      7  N   UNL     1     -26.865   6.455   8.242  0.00  0.00    -0.158 N 
ATOM      8  N   UNL     1     -26.301   7.352   7.403  0.00  0.00    -0.045 NA
ATOM      9  N   UNL     1     -27.275   8.201   7.109  0.00  0.00    -0.108 NA
ATOM     10  C   UNL     1     -28.399   7.769   7.777  0.00  0.00    +0.205 A 
ATOM     11  N   UNL     1     -28.178   6.660   8.500  0.00  0.00    -0.130 NA
BRANCH   7  12
ATOM     12  C   UNL     1     -26.113   5.333   8.795  0.00  0.00    +0.203 C 
BRANCH  12  18
ATOM     13  C   UNL     1     -26.575   3.622  10.645  0.00  0.00    -0.032 A 
ATOM     14  C   UNL     1     -27.464   2.741  11.289  0.00  0.00    +0.004 A 
ATOM     15  C   UNL     1     -28.749   2.524  10.798  0.00  0.00    +0.000 A 
ATOM     16  C   UNL     1     -29.176   3.200   9.664  0.00  0.00    +0.000 A 
ATOM     17  C   UNL     1     -28.317   4.090   9.019  0.00  0.00    +0.006 A 
ATOM     18  C   UNL     1     -27.000   4.305   9.480  0.00  0.00    -0.021 A 
BRANCH  13  19
ATOM     19  C   UNL     1     -25.206   3.815  11.266  0.00  0.00    +0.160 C 
BRANCH  19  21
ATOM     20  O   UNL     1     -23.367   2.442  11.833  0.00  0.00    -0.246 OA
ATOM     21  C   UNL     1     -24.264   2.648  10.963  0.00  0.00    +0.360 C 
ATOM     22  O   UNL     1     -24.470   2.052   9.868  0.00  0.00    -0.246 OA
ENDBRANCH  19  21
ENDBRANCH  13  19
ENDBRANCH  12  18
ENDBRANCH   7  12
ENDBRANCH   1  10
BRANCH   5  23
ATOM     23  C   UNL     1     -33.342   7.623   8.077  0.00  0.00    +0.010 C 
ATOM     24  C   UNL     1     -33.455   6.307   7.832  0.00  0.00    +0.028 C 
BRANCH  24  25
ATOM     25  C   UNL     1     -34.653   5.494   8.078  0.00  0.00    +0.065 A 
ATOM     26  C   UNL     1     -34.754   4.158   7.711  0.00  0.00    +0.028 A 
ATOM     27  C   UNL     1     -35.945   3.484   7.964  0.00  0.00    +0.012 A 
ATOM     28  C   UNL     1     -37.010   4.160   8.566  0.00  0.00    +0.000 A 
ATOM     29  C   UNL     1     -38.232   3.522   8.842  0.00  0.00    +0.010 A 
ATOM     30  C   UNL     1     -39.276   4.227   9.440  0.00  0.00    +0.001 A 
ATOM     31  C   UNL     1     -39.101   5.568   9.763  0.00  0.00    +0.002 A 
ATOM     32  C   UNL     1     -37.883   6.198   9.486  0.00  0.00    +0.028 A 
ATOM     33  C   UNL     1     -36.828   5.519   8.892  0.00  0.00    +0.072 A 
ATOM     34  N   UNL     1     -35.677   6.172   8.646  0.00  0.00    -0.247 NA
ENDBRANCH  24  25
ENDBRANCH   5  23
TORSDOF 7
ENDMDL
