MODEL 1
REMARK VINA RESULT:   -12.309      0.000      0.000
REMARK INTER + INTRA:         -18.275
REMARK INTER:                 -17.346
REMARK INTRA:                  -0.929
REMARK UNBOUND:                -0.929
REMARK  Name = CHEMBL18765
REMARK  7 active torsions:
REMARK  status: ('A' for Active; 'I' for Inactive)
REMARK    1  A    between atoms: C_2  and  C_4
REMARK    2  A    between atoms: C_4  and  C_5
REMARK    3  A    between atoms: C_10  and  C_11
REMARK    4  A    between atoms: C_11  and  N_12
REMARK    5  A    between atoms: C_15  and  C_16
REMARK    6  A    between atoms: C_20  and  C_21
REMARK    7  A    between atoms: C_22  and  C_23
REMARK                            x       y       z     vdW  Elec       q    Type
REMARK                         _______ _______ _______ _____ _____    ______ ____
ROOT
ATOM      1  C   UNL     1     -33.214   4.686   8.918  0.00  0.00    +0.023 A 
ATOM      2  C   UNL     1     -34.531   4.863   8.475  0.00  0.00    +0.012 A 
ATOM      3  C   UNL     1     -34.861   5.931   7.640  0.00  0.00    +0.001 A 
ATOM      4  C   UNL     1     -33.876   6.838   7.242  0.00  0.00    +0.008 A 
ATOM      5  C   UNL     1     -32.556   6.693   7.684  0.00  0.00    -0.024 A 
ATOM      6  C   UNL     1     -32.234   5.606   8.511  0.00  0.00    +0.019 A 
ENDROOT
BRANCH   1  10
ATOM      7  N   UNL     1     -31.956   1.908  10.635  0.00  0.00    -0.158 N 
ATOM      8  N   UNL     1     -32.985   2.195  11.463  0.00  0.00    -0.045 NA
ATOM      9  N   UNL     1     -33.573   3.251  10.918  0.00  0.00    -0.108 NA
ATOM     10  C   UNL     1     -32.861   3.568   9.784  0.00  0.00    +0.205 A 
ATOM     11  N   UNL     1     -31.824   2.741   9.576  0.00  0.00    -0.130 NA
BRANCH   7  12
ATOM     12  C   UNL     1     -31.042   0.800  10.892  0.00  0.00    +0.203 C 
BRANCH  12  18
ATOM     13  C   UNL     1     -29.008   1.557  12.254  0.00  0.00    -0.032 A 
ATOM     14  C   UNL     1     -28.384   1.742  13.502  0.00  0.00    +0.004 A 
ATOM     15  C   UNL     1     -28.996   1.332  14.684  0.00  0.00    +0.000 A 
ATOM     16  C   UNL     1     -30.253   0.744  14.642  0.00  0.00    +0.000 A 
ATOM     17  C   UNL     1     -30.896   0.565  13.417  0.00  0.00    +0.006 A 
ATOM     18  C   UNL     1     -30.284   0.946  12.203  0.00  0.00    -0.021 A 
BRANCH  13  19
ATOM     19  C   UNL     1     -28.279   2.059  11.023  0.00  0.00    +0.160 C 
BRANCH  19  21
ATOM     20  O   UNL     1     -26.028   1.368  10.812  0.00  0.00    -0.246 OA
ATOM     21  C   UNL     1     -27.225   1.065  10.531  0.00  0.00    +0.360 C 
ATOM     22  O   UNL     1     -27.669   0.081   9.874  0.00  0.00    -0.246 OA
ENDBRANCH  19  21
ENDBRANCH  13  19
ENDBRANCH  12  18
ENDBRANCH   7  12
ENDBRANCH   1  10
BRANCH   5  23
ATOM     23  C   UNL     1     -31.480   7.604   7.264  0.00  0.00    +0.010 C 
ATOM     24  C   UNL     1     -31.611   8.940   7.208  0.00  0.00    +0.028 C 
BRANCH  24  25
ATOM     25  C   UNL     1     -30.565   9.882   6.794  0.00  0.00    +0.065 A 
ATOM     26  C   UNL     1     -30.828  11.191   6.411  0.00  0.00    +0.028 A 
ATOM     27  C   UNL     1     -29.766  11.995   6.007  0.00  0.00    +0.012 A 
ATOM     28  C   UNL     1     -28.470  11.473   5.985  0.00  0.00    +0.000 A 
ATOM     29  C   UNL     1     -27.365  12.247   5.585  0.00  0.00    +0.010 A 
ATOM     30  C   UNL     1     -26.086  11.693   5.571  0.00  0.00    +0.001 A 
ATOM     31  C   UNL     1     -25.907  10.369   5.955  0.00  0.00    +0.002 A 
ATOM     32  C   UNL     1     -27.009   9.603   6.350  0.00  0.00    +0.028 A 
ATOM     33  C   UNL     1     -28.294  10.130   6.375  0.00  0.00    +0.072 A 
ATOM     34  N   UNL     1     -29.320   9.351   6.763  0.00  0.00    -0.247 NA
ENDBRANCH  24  25
ENDBRANCH   5  23
TORSDOF 7
ENDMDL
MODEL 2
REMARK VINA RESULT:   -12.154      1.373      2.222
REMARK INTER + INTRA:         -18.056
REMARK INTER:                 -17.117
REMARK INTRA:                  -0.939
REMARK UNBOUND:                -0.929
REMARK  Name = CHEMBL18765
REMARK  7 active torsions:
REMARK  status: ('A' for Active; 'I' for Inactive)
REMARK    1  A    between atoms: C_2  and  C_4
REMARK    2  A    between atoms: C_4  and  C_5
REMARK    3  A    between atoms: C_10  and  C_11
REMARK    4  A    between atoms: C_11  and  N_12
REMARK    5  A    between atoms: C_15  and  C_16
REMARK    6  A    between atoms: C_20  and  C_21
REMARK    7  A    between atoms: C_22  and  C_23
REMARK                            x       y       z     vdW  Elec       q    Type
REMARK                         _______ _______ _______ _____ _____    ______ ____
ROOT
ATOM      1  C   UNL     1     -33.108   4.331   8.882  0.00  0.00    +0.023 A 
ATOM      2  C   UNL     1     -34.487   4.235   8.655  0.00  0.00    +0.012 A 
ATOM      3  C   UNL     1     -35.151   5.199   7.896  0.00  0.00    +0.001 A 
ATOM      4  C   UNL     1     -34.442   6.276   7.359  0.00  0.00    +0.008 A 
ATOM      5  C   UNL     1     -33.066   6.405   7.585  0.00  0.00    -0.024 A 
ATOM      6  C   UNL     1     -32.408   5.420   8.337  0.00  0.00    +0.019 A 
ENDROOT
BRANCH   1  10
ATOM      7  N   UNL     1     -31.012   1.976  10.402  0.00  0.00    -0.158 N 
ATOM      8  N   UNL     1     -32.067   1.863  11.239  0.00  0.00    -0.045 NA
ATOM      9  N   UNL     1     -32.967   2.715  10.769  0.00  0.00    -0.108 NA
ATOM     10  C   UNL     1     -32.408   3.322   9.667  0.00  0.00    +0.205 A 
ATOM     11  N   UNL     1     -31.165   2.883   9.408  0.00  0.00    -0.130 NA
BRANCH   7  12
ATOM     12  C   UNL     1     -29.791   1.199  10.585  0.00  0.00    +0.203 C 
BRANCH  12  18
ATOM     13  C   UNL     1     -28.167   2.056  12.371  0.00  0.00    -0.032 A 
ATOM     14  C   UNL     1     -27.017   2.792  12.712  0.00  0.00    +0.004 A 
ATOM     15  C   UNL     1     -26.309   3.514  11.754  0.00  0.00    +0.000 A 
ATOM     16  C   UNL     1     -26.729   3.498  10.431  0.00  0.00    +0.000 A 
ATOM     17  C   UNL     1     -27.857   2.762  10.068  0.00  0.00    +0.006 A 
ATOM     18  C   UNL     1     -28.608   2.046  11.026  0.00  0.00    -0.021 A 
BRANCH  13  19
ATOM     19  C   UNL     1     -28.857   1.279  13.475  0.00  0.00    +0.160 C 
BRANCH  19  21
ATOM     20  O   UNL     1     -28.860  -1.053  13.093  0.00  0.00    -0.246 OA
ATOM     21  C   UNL     1     -28.246  -0.110  13.673  0.00  0.00    +0.360 C 
ATOM     22  O   UNL     1     -27.226  -0.156  14.417  0.00  0.00    -0.246 OA
ENDBRANCH  19  21
ENDBRANCH  13  19
ENDBRANCH  12  18
ENDBRANCH   7  12
ENDBRANCH   1  10
BRANCH   5  23
ATOM     23  C   UNL     1     -32.273   7.504   7.013  0.00  0.00    +0.010 C 
ATOM     24  C   UNL     1     -31.675   8.456   7.748  0.00  0.00    +0.028 C 
BRANCH  24  25
ATOM     25  C   UNL     1     -30.878   9.568   7.216  0.00  0.00    +0.065 A 
ATOM     26  C   UNL     1     -31.402  10.831   6.972  0.00  0.00    +0.028 A 
ATOM     27  C   UNL     1     -30.567  11.809   6.439  0.00  0.00    +0.012 A 
ATOM     28  C   UNL     1     -29.234  11.503   6.153  0.00  0.00    +0.000 A 
ATOM     29  C   UNL     1     -28.353  12.457   5.615  0.00  0.00    +0.010 A 
ATOM     30  C   UNL     1     -27.030  12.117   5.338  0.00  0.00    +0.001 A 
ATOM     31  C   UNL     1     -26.585  10.825   5.597  0.00  0.00    +0.002 A 
ATOM     32  C   UNL     1     -27.466   9.879   6.131  0.00  0.00    +0.028 A 
ATOM     33  C   UNL     1     -28.788  10.192   6.418  0.00  0.00    +0.072 A 
ATOM     34  N   UNL     1     -29.595   9.245   6.931  0.00  0.00    -0.247 NA
ENDBRANCH  24  25
ENDBRANCH   5  23
TORSDOF 7
ENDMDL
MODEL 3
REMARK VINA RESULT:   -11.912      2.739     10.128
REMARK INTER + INTRA:         -17.715
REMARK INTER:                 -16.942
REMARK INTRA:                  -0.774
REMARK UNBOUND:                -0.929
REMARK  Name = CHEMBL18765
REMARK  7 active torsions:
REMARK  status: ('A' for Active; 'I' for Inactive)
REMARK    1  A    between atoms: C_2  and  C_4
REMARK    2  A    between atoms: C_4  and  C_5
REMARK    3  A    between atoms: C_10  and  C_11
REMARK    4  A    between atoms: C_11  and  N_12
REMARK    5  A    between atoms: C_15  and  C_16
REMARK    6  A    between atoms: C_20  and  C_21
REMARK    7  A    between atoms: C_22  and  C_23
REMARK                            x       y       z     vdW  Elec       q    Type
REMARK                         _______ _______ _______ _____ _____    ______ ____
ROOT
ATOM      1  C   UNL     1     -33.383   5.765   7.975  0.00  0.00    +0.023 A 
ATOM      2  C   UNL     1     -34.735   6.061   7.761  0.00  0.00    +0.012 A 
ATOM      3  C   UNL     1     -35.733   5.217   8.251  0.00  0.00    +0.001 A 
ATOM      4  C   UNL     1     -35.387   4.064   8.958  0.00  0.00    +0.008 A 
ATOM      5  C   UNL     1     -34.043   3.736   9.171  0.00  0.00    -0.024 A 
ATOM      6  C   UNL     1     -33.050   4.601   8.686  0.00  0.00    +0.019 A 
ENDROOT
BRANCH   1  10
ATOM      7  N   UNL     1     -30.601   7.757   7.237  0.00  0.00    -0.158 N 
ATOM      8  N   UNL     1     -31.325   8.019   6.126  0.00  0.00    -0.045 NA
ATOM      9  N   UNL     1     -32.440   7.319   6.275  0.00  0.00    -0.108 NA
ATOM     10  C   UNL     1     -32.337   6.647   7.472  0.00  0.00    +0.205 A 
ATOM     11  N   UNL     1     -31.180   6.896   8.107  0.00  0.00    -0.130 NA
BRANCH   7  12
ATOM     12  C   UNL     1     -29.281   8.338   7.456  0.00  0.00    +0.203 C 
BRANCH  12  18
ATOM     13  C   UNL     1     -28.158  10.166   6.055  0.00  0.00    -0.032 A 
ATOM     14  C   UNL     1     -28.150  11.484   5.562  0.00  0.00    +0.004 A 
ATOM     15  C   UNL     1     -29.117  12.408   5.952  0.00  0.00    +0.000 A 
ATOM     16  C   UNL     1     -30.122  12.024   6.829  0.00  0.00    +0.000 A 
ATOM     17  C   UNL     1     -30.158  10.718   7.318  0.00  0.00    +0.006 A 
ATOM     18  C   UNL     1     -29.173   9.772   6.961  0.00  0.00    -0.021 A 
BRANCH  13  19
ATOM     19  C   UNL     1     -27.082   9.223   5.555  0.00  0.00    +0.160 C 
BRANCH  19  21
ATOM     20  O   UNL     1     -25.773   8.601   7.423  0.00  0.00    -0.246 OA
ATOM     21  C   UNL     1     -25.798   9.321   6.382  0.00  0.00    +0.360 C 
ATOM     22  O   UNL     1     -24.932  10.133   5.949  0.00  0.00    -0.246 OA
ENDBRANCH  19  21
ENDBRANCH  13  19
ENDBRANCH  12  18
ENDBRANCH   7  12
ENDBRANCH   1  10
BRANCH   5  23
ATOM     23  C   UNL     1     -33.633   2.550   9.937  0.00  0.00    +0.010 C 
ATOM     24  C   UNL     1     -32.357   2.150  10.071  0.00  0.00    +0.028 C 
BRANCH  24  25
ATOM     25  C   UNL     1     -31.907   0.973  10.824  0.00  0.00    +0.065 A 
ATOM     26  C   UNL     1     -31.967  -0.321  10.322  0.00  0.00    +0.028 A 
ATOM     27  C   UNL     1     -31.541  -1.371  11.130  0.00  0.00    +0.012 A 
ATOM     28  C   UNL     1     -31.074  -1.108  12.421  0.00  0.00    +0.000 A 
ATOM     29  C   UNL     1     -30.633  -2.136  13.273  0.00  0.00    +0.010 A 
ATOM     30  C   UNL     1     -30.178  -1.840  14.556  0.00  0.00    +0.001 A 
ATOM     31  C   UNL     1     -30.162  -0.519  14.991  0.00  0.00    +0.002 A 
ATOM     32  C   UNL     1     -30.604   0.499  14.140  0.00  0.00    +0.028 A 
ATOM     33  C   UNL     1     -31.061   0.232  12.856  0.00  0.00    +0.072 A 
ATOM     34  N   UNL     1     -31.475   1.248  12.077  0.00  0.00    -0.247 NA
ENDBRANCH  24  25
ENDBRANCH   5  23
TORSDOF 7
ENDMDL
