MODEL 1
REMARK VINA RESULT:   -12.622      0.000      0.000
REMARK INTER + INTRA:         -18.063
REMARK INTER:                 -17.050
REMARK INTRA:                  -1.013
REMARK UNBOUND:                -1.013
REMARK  Name = CHEMBL3311247
REMARK  6 active torsions:
REMARK  status: ('A' for Active; 'I' for Inactive)
REMARK    1  A    between atoms: C_2  and  C_3
REMARK    2  A    between atoms: C_2  and  C_26
REMARK    3  A    between atoms: C_7  and  C_8
REMARK    4  A    between atoms: C_8  and  C_10
REMARK    5  A    between atoms: C_14  and  C_15
REMARK    6  A    between atoms: C_30  and  C_31
REMARK                            x       y       z     vdW  Elec       q    Type
REMARK                         _______ _______ _______ _____ _____    ______ ____
ROOT
ATOM      1  C   UNL     1      -6.575 -14.271 -52.746  0.00  0.00    +0.113 A 
ATOM      2  C   UNL     1      -6.924 -14.900 -51.556  0.00  0.00    +0.032 A 
ATOM      3  C   UNL     1      -8.259 -15.242 -51.349  0.00  0.00    +0.004 A 
ATOM      4  C   UNL     1      -9.202 -14.940 -52.329  0.00  0.00    +0.032 A 
ATOM      5  C   UNL     1      -8.776 -14.294 -53.484  0.00  0.00    +0.113 A 
ATOM      6  N   UNL     1      -7.483 -13.965 -53.699  0.00  0.00    -0.240 NA
ENDROOT
BRANCH   1   8
ATOM      7  O   UNL     1      -4.459 -14.454 -53.765  0.00  0.00    -0.283 OA
ATOM      8  C   UNL     1      -5.166 -13.837 -52.966  0.00  0.00    +0.229 C 
BRANCH   8   9
ATOM      9  C   UNL     1      -4.588 -12.697 -52.202  0.00  0.00    +0.113 A 
ATOM     10  C   UNL     1      -4.898 -11.399 -52.594  0.00  0.00    +0.032 A 
ATOM     11  C   UNL     1      -4.310 -10.345 -51.905  0.00  0.00    +0.004 A 
ATOM     12  C   UNL     1      -3.436 -10.621 -50.857  0.00  0.00    +0.030 A 
ATOM     13  C   UNL     1      -3.199 -11.948 -50.506  0.00  0.00    +0.094 A 
ATOM     14  N   UNL     1      -3.790 -12.982 -51.147  0.00  0.00    -0.242 NA
BRANCH  13  15
ATOM     15  C   UNL     1      -2.258 -12.274 -49.445  0.00  0.00    +0.138 A 
ATOM     16  N   UNL     1      -2.475 -11.957 -48.126  0.00  0.00    -0.127 NA
ATOM     17  N   UNL     1      -1.425 -12.349 -47.418  0.00  0.00    -0.060 NA
ATOM     18  N   UNL     1      -0.526 -12.918 -48.258  0.00  0.00    -0.219 N 
ATOM     19  C   UNL     1       0.726 -13.449 -47.952  0.00  0.00    +0.114 A 
ATOM     20  C   UNL     1       1.490 -13.973 -48.926  0.00  0.00    +0.020 A 
ATOM     21  C   UNL     1       0.980 -13.977 -50.287  0.00  0.00    +0.004 A 
ATOM     22  C   UNL     1      -0.230 -13.469 -50.590  0.00  0.00    +0.030 A 
ATOM     23  C   UNL     1      -1.033 -12.901 -49.559  0.00  0.00    +0.096 A 
ENDBRANCH  13  15
ENDBRANCH   8   9
ENDBRANCH   1   8
BRANCH   5  24
ATOM     24  C   UNL     1      -9.752 -14.015 -54.576  0.00  0.00    +0.229 C 
ATOM     25  O   UNL     1     -10.751 -13.333 -54.336  0.00  0.00    -0.283 OA
BRANCH  24  26
ATOM     26  C   UNL     1      -9.560 -14.584 -55.938  0.00  0.00    +0.113 A 
ATOM     27  C   UNL     1      -8.307 -14.498 -56.532  0.00  0.00    +0.032 A 
ATOM     28  C   UNL     1      -8.157 -14.987 -57.825  0.00  0.00    +0.004 A 
ATOM     29  C   UNL     1      -9.257 -15.539 -58.476  0.00  0.00    +0.030 A 
ATOM     30  C   UNL     1     -10.473 -15.616 -57.802  0.00  0.00    +0.094 A 
ATOM     31  N   UNL     1     -10.625 -15.173 -56.532  0.00  0.00    -0.242 NA
BRANCH  30  32
ATOM     32  C   UNL     1     -11.654 -16.147 -58.466  0.00  0.00    +0.138 A 
ATOM     33  N   UNL     1     -12.408 -15.417 -59.353  0.00  0.00    -0.127 NA
ATOM     34  N   UNL     1     -13.429 -16.161 -59.752  0.00  0.00    -0.060 NA
ATOM     35  N   UNL     1     -13.351 -17.366 -59.137  0.00  0.00    -0.219 N 
ATOM     36  C   UNL     1     -14.225 -18.449 -59.245  0.00  0.00    +0.114 A 
ATOM     37  C   UNL     1     -13.988 -19.573 -58.550  0.00  0.00    +0.020 A 
ATOM     38  C   UNL     1     -12.811 -19.634 -57.700  0.00  0.00    +0.004 A 
ATOM     39  C   UNL     1     -11.960 -18.595 -57.595  0.00  0.00    +0.030 A 
ATOM     40  C   UNL     1     -12.220 -17.397 -58.321  0.00  0.00    +0.096 A 
ENDBRANCH  30  32
ENDBRANCH  24  26
ENDBRANCH   5  24
TORSDOF 6
ENDMDL
MODEL 2
REMARK VINA RESULT:   -12.417      0.615     12.446
REMARK INTER + INTRA:         -17.785
REMARK INTER:                 -16.802
REMARK INTRA:                  -0.983
REMARK UNBOUND:                -1.013
REMARK  Name = CHEMBL3311247
REMARK  6 active torsions:
REMARK  status: ('A' for Active; 'I' for Inactive)
REMARK    1  A    between atoms: C_2  and  C_3
REMARK    2  A    between atoms: C_2  and  C_26
REMARK    3  A    between atoms: C_7  and  C_8
REMARK    4  A    between atoms: C_8  and  C_10
REMARK    5  A    between atoms: C_14  and  C_15
REMARK    6  A    between atoms: C_30  and  C_31
REMARK                            x       y       z     vdW  Elec       q    Type
REMARK                         _______ _______ _______ _____ _____    ______ ____
ROOT
ATOM      1  C   UNL     1      -8.764 -14.330 -53.565  0.00  0.00    +0.113 A 
ATOM      2  C   UNL     1      -9.172 -14.999 -52.417  0.00  0.00    +0.032 A 
ATOM      3  C   UNL     1      -8.220 -15.294 -51.444  0.00  0.00    +0.004 A 
ATOM      4  C   UNL     1      -6.894 -14.918 -51.648  0.00  0.00    +0.032 A 
ATOM      5  C   UNL     1      -6.563 -14.268 -52.831  0.00  0.00    +0.113 A 
ATOM      6  N   UNL     1      -7.479 -13.969 -53.778  0.00  0.00    -0.240 NA
ENDROOT
BRANCH   1   8
ATOM      7  O   UNL     1     -10.752 -13.385 -54.406  0.00  0.00    -0.283 OA
ATOM      8  C   UNL     1      -9.750 -14.059 -54.651  0.00  0.00    +0.229 C 
BRANCH   8   9
ATOM      9  C   UNL     1      -9.561 -14.626 -56.015  0.00  0.00    +0.113 A 
ATOM     10  C   UNL     1      -8.310 -14.533 -56.615  0.00  0.00    +0.032 A 
ATOM     11  C   UNL     1      -8.163 -15.020 -57.908  0.00  0.00    +0.004 A 
ATOM     12  C   UNL     1      -9.264 -15.577 -58.555  0.00  0.00    +0.030 A 
ATOM     13  C   UNL     1     -10.477 -15.659 -57.876  0.00  0.00    +0.094 A 
ATOM     14  N   UNL     1     -10.625 -15.220 -56.605  0.00  0.00    -0.242 NA
BRANCH  13  15
ATOM     15  C   UNL     1     -11.657 -16.195 -58.536  0.00  0.00    +0.138 A 
ATOM     16  N   UNL     1     -12.419 -15.468 -59.419  0.00  0.00    -0.127 NA
ATOM     17  N   UNL     1     -13.438 -16.217 -59.814  0.00  0.00    -0.060 NA
ATOM     18  N   UNL     1     -13.352 -17.423 -59.202  0.00  0.00    -0.219 N 
ATOM     19  C   UNL     1     -14.220 -18.509 -59.306  0.00  0.00    +0.114 A 
ATOM     20  C   UNL     1     -13.974 -19.634 -58.613  0.00  0.00    +0.020 A 
ATOM     21  C   UNL     1     -12.793 -19.690 -57.769  0.00  0.00    +0.004 A 
ATOM     22  C   UNL     1     -11.948 -18.646 -57.665  0.00  0.00    +0.030 A 
ATOM     23  C   UNL     1     -12.217 -17.449 -58.389  0.00  0.00    +0.096 A 
ENDBRANCH  13  15
ENDBRANCH   8   9
ENDBRANCH   1   8
BRANCH   5  24
ATOM     24  C   UNL     1      -5.165 -13.799 -53.048  0.00  0.00    +0.229 C 
ATOM     25  O   UNL     1      -4.478 -14.326 -53.926  0.00  0.00    -0.283 OA
BRANCH  24  26
ATOM     26  C   UNL     1      -4.572 -12.734 -52.193  0.00  0.00    +0.113 A 
ATOM     27  C   UNL     1      -4.775 -11.403 -52.538  0.00  0.00    +0.032 A 
ATOM     28  C   UNL     1      -4.172 -10.421 -51.759  0.00  0.00    +0.004 A 
ATOM     29  C   UNL     1      -3.392 -10.802 -50.670  0.00  0.00    +0.030 A 
ATOM     30  C   UNL     1      -3.261 -12.155 -50.372  0.00  0.00    +0.094 A 
ATOM     31  N   UNL     1      -3.868 -13.119 -51.102  0.00  0.00    -0.242 NA
BRANCH  30  32
ATOM     32  C   UNL     1      -2.418 -12.590 -49.268  0.00  0.00    +0.138 A 
ATOM     33  N   UNL     1      -2.913 -13.198 -48.139  0.00  0.00    -0.127 NA
ATOM     34  N   UNL     1      -1.906 -13.435 -47.311  0.00  0.00    -0.060 NA
ATOM     35  N   UNL     1      -0.761 -12.991 -47.885  0.00  0.00    -0.219 N 
ATOM     36  C   UNL     1       0.533 -13.017 -47.363  0.00  0.00    +0.114 A 
ATOM     37  C   UNL     1       1.555 -12.522 -48.080  0.00  0.00    +0.020 A 
ATOM     38  C   UNL     1       1.282 -11.971 -49.397  0.00  0.00    +0.004 A 
ATOM     39  C   UNL     1       0.037 -11.947 -49.910  0.00  0.00    +0.030 A 
ATOM     40  C   UNL     1      -1.050 -12.459 -49.142  0.00  0.00    +0.096 A 
ENDBRANCH  30  32
ENDBRANCH  24  26
ENDBRANCH   5  24
TORSDOF 6
ENDMDL
MODEL 3
REMARK VINA RESULT:   -12.073      5.885      7.442
REMARK INTER + INTRA:         -17.321
REMARK INTER:                 -16.564
REMARK INTRA:                  -0.757
REMARK UNBOUND:                -1.013
REMARK  Name = CHEMBL3311247
REMARK  6 active torsions:
REMARK  status: ('A' for Active; 'I' for Inactive)
REMARK    1  A    between atoms: C_2  and  C_3
REMARK    2  A    between atoms: C_2  and  C_26
REMARK    3  A    between atoms: C_7  and  C_8
REMARK    4  A    between atoms: C_8  and  C_10
REMARK    5  A    between atoms: C_14  and  C_15
REMARK    6  A    between atoms: C_30  and  C_31
REMARK                            x       y       z     vdW  Elec       q    Type
REMARK                         _______ _______ _______ _____ _____    ______ ____
ROOT
ATOM      1  C   UNL     1      -5.896 -15.000 -54.929  0.00  0.00    +0.113 A 
ATOM      2  C   UNL     1      -7.049 -14.707 -55.647  0.00  0.00    +0.032 A 
ATOM      3  C   UNL     1      -7.016 -14.820 -57.036  0.00  0.00    +0.004 A 
ATOM      4  C   UNL     1      -5.836 -15.214 -57.662  0.00  0.00    +0.032 A 
ATOM      5  C   UNL     1      -4.721 -15.471 -56.874  0.00  0.00    +0.113 A 
ATOM      6  N   UNL     1      -4.742 -15.373 -55.527  0.00  0.00    -0.240 NA
ENDROOT
BRANCH   1   8
ATOM      7  O   UNL     1      -6.506 -15.619 -52.740  0.00  0.00    -0.283 OA
ATOM      8  C   UNL     1      -5.884 -14.826 -53.448  0.00  0.00    +0.229 C 
BRANCH   8   9
ATOM      9  C   UNL     1      -5.167 -13.683 -52.818  0.00  0.00    +0.113 A 
ATOM     10  C   UNL     1      -5.654 -12.395 -53.011  0.00  0.00    +0.032 A 
ATOM     11  C   UNL     1      -4.945 -11.334 -52.460  0.00  0.00    +0.004 A 
ATOM     12  C   UNL     1      -3.780 -11.594 -51.741  0.00  0.00    +0.030 A 
ATOM     13  C   UNL     1      -3.374 -12.915 -51.568  0.00  0.00    +0.094 A 
ATOM     14  N   UNL     1      -4.072 -13.959 -52.071  0.00  0.00    -0.242 NA
BRANCH  13  15
ATOM     15  C   UNL     1      -2.140 -13.220 -50.861  0.00  0.00    +0.138 A 
ATOM     16  N   UNL     1      -1.084 -13.879 -51.442  0.00  0.00    -0.127 NA
ATOM     17  N   UNL     1      -0.132 -14.038 -50.533  0.00  0.00    -0.060 NA
ATOM     18  N   UNL     1      -0.553 -13.491 -49.367  0.00  0.00    -0.219 N 
ATOM     19  C   UNL     1       0.114 -13.448 -48.143  0.00  0.00    +0.114 A 
ATOM     20  C   UNL     1      -0.467 -12.862 -47.082  0.00  0.00    +0.020 A 
ATOM     21  C   UNL     1      -1.787 -12.277 -47.244  0.00  0.00    +0.004 A 
ATOM     22  C   UNL     1      -2.436 -12.311 -48.424  0.00  0.00    +0.030 A 
ATOM     23  C   UNL     1      -1.825 -12.946 -49.544  0.00  0.00    +0.096 A 
ENDBRANCH  13  15
ENDBRANCH   8   9
ENDBRANCH   1   8
BRANCH   5  24
ATOM     24  C   UNL     1      -3.463 -15.955 -57.513  0.00  0.00    +0.229 C 
ATOM     25  O   UNL     1      -2.444 -16.077 -56.830  0.00  0.00    -0.283 OA
BRANCH  24  26
ATOM     26  C   UNL     1      -3.409 -16.250 -58.971  0.00  0.00    +0.113 A 
ATOM     27  C   UNL     1      -4.008 -15.366 -59.860  0.00  0.00    +0.032 A 
ATOM     28  C   UNL     1      -3.995 -15.682 -61.214  0.00  0.00    +0.004 A 
ATOM     29  C   UNL     1      -3.388 -16.865 -61.630  0.00  0.00    +0.030 A 
ATOM     30  C   UNL     1      -2.783 -17.684 -60.681  0.00  0.00    +0.094 A 
ATOM     31  N   UNL     1      -2.760 -17.373 -59.364  0.00  0.00    -0.242 NA
BRANCH  30  32
ATOM     32  C   UNL     1      -2.178 -18.948 -61.075  0.00  0.00    +0.138 A 
ATOM     33  N   UNL     1      -2.561 -20.159 -60.552  0.00  0.00    -0.127 NA
ATOM     34  N   UNL     1      -1.801 -21.107 -61.080  0.00  0.00    -0.060 NA
ATOM     35  N   UNL     1      -0.927 -20.531 -61.940  0.00  0.00    -0.219 N 
ATOM     36  C   UNL     1       0.070 -21.145 -62.700  0.00  0.00    +0.114 A 
ATOM     37  C   UNL     1       0.852 -20.406 -63.502  0.00  0.00    +0.020 A 
ATOM     38  C   UNL     1       0.634 -18.970 -63.563  0.00  0.00    +0.004 A 
ATOM     39  C   UNL     1      -0.329 -18.371 -62.836  0.00  0.00    +0.030 A 
ATOM     40  C   UNL     1      -1.150 -19.154 -61.973  0.00  0.00    +0.096 A 
ENDBRANCH  30  32
ENDBRANCH  24  26
ENDBRANCH   5  24
TORSDOF 6
ENDMDL
