MODEL 1
REMARK VINA RESULT:   -11.386      0.000      0.000
REMARK INTER + INTRA:         -16.373
REMARK INTER:                 -15.379
REMARK INTRA:                  -0.994
REMARK UNBOUND:                -0.994
REMARK  Name = CHEMBL3311247
REMARK  6 active torsions:
REMARK  status: ('A' for Active; 'I' for Inactive)
REMARK    1  A    between atoms: C_2  and  C_3
REMARK    2  A    between atoms: C_2  and  C_26
REMARK    3  A    between atoms: C_7  and  C_8
REMARK    4  A    between atoms: C_8  and  C_10
REMARK    5  A    between atoms: C_14  and  C_15
REMARK    6  A    between atoms: C_30  and  C_31
REMARK                            x       y       z     vdW  Elec       q    Type
REMARK                         _______ _______ _______ _____ _____    ______ ____
ROOT
ATOM      1  C   UNL     1      22.689  10.958 -15.265  0.00  0.00    +0.113 A 
ATOM      2  C   UNL     1      23.188  12.253 -15.195  0.00  0.00    +0.032 A 
ATOM      3  C   UNL     1      23.519  12.774 -13.945  0.00  0.00    +0.004 A 
ATOM      4  C   UNL     1      23.336  11.990 -12.808  0.00  0.00    +0.032 A 
ATOM      5  C   UNL     1      22.815  10.711 -12.960  0.00  0.00    +0.113 A 
ATOM      6  N   UNL     1      22.498  10.193 -14.167  0.00  0.00    -0.240 NA
ENDROOT
BRANCH   1   8
ATOM      7  O   UNL     1      22.303   9.181 -16.763  0.00  0.00    -0.283 OA
ATOM      8  C   UNL     1      22.267  10.400 -16.581  0.00  0.00    +0.229 C 
BRANCH   8   9
ATOM      9  C   UNL     1      21.844  11.296 -17.693  0.00  0.00    +0.113 A 
ATOM     10  C   UNL     1      20.486  11.489 -17.920  0.00  0.00    +0.032 A 
ATOM     11  C   UNL     1      20.106  12.286 -18.994  0.00  0.00    +0.004 A 
ATOM     12  C   UNL     1      21.088  12.857 -19.799  0.00  0.00    +0.030 A 
ATOM     13  C   UNL     1      22.428  12.638 -19.488  0.00  0.00    +0.094 A 
ATOM     14  N   UNL     1      22.812  11.892 -18.427  0.00  0.00    -0.242 NA
BRANCH  13  15
ATOM     15  C   UNL     1      23.480  13.182 -20.334  0.00  0.00    +0.138 A 
ATOM     16  N   UNL     1      23.703  14.530 -20.481  0.00  0.00    -0.127 NA
ATOM     17  N   UNL     1      24.698  14.702 -21.340  0.00  0.00    -0.060 NA
ATOM     18  N   UNL     1      25.126  13.485 -21.755  0.00  0.00    -0.219 N 
ATOM     19  C   UNL     1      26.135  13.191 -22.672  0.00  0.00    +0.114 A 
ATOM     20  C   UNL     1      26.422  11.911 -22.967  0.00  0.00    +0.020 A 
ATOM     21  C   UNL     1      25.667  10.858 -22.311  0.00  0.00    +0.004 A 
ATOM     22  C   UNL     1      24.693  11.134 -21.422  0.00  0.00    +0.030 A 
ATOM     23  C   UNL     1      24.380  12.491 -21.120  0.00  0.00    +0.096 A 
ENDBRANCH  13  15
ENDBRANCH   8   9
ENDBRANCH   1   8
BRANCH   5  24
ATOM     24  C   UNL     1      22.667   9.828 -11.768  0.00  0.00    +0.229 C 
ATOM     25  O   UNL     1      22.690  10.324 -10.640  0.00  0.00    -0.283 OA
BRANCH  24  26
ATOM     26  C   UNL     1      22.536   8.353 -11.918  0.00  0.00    +0.113 A 
ATOM     27  C   UNL     1      23.469   7.669 -12.688  0.00  0.00    +0.032 A 
ATOM     28  C   UNL     1      23.304   6.300 -12.863  0.00  0.00    +0.004 A 
ATOM     29  C   UNL     1      22.217   5.665 -12.266  0.00  0.00    +0.030 A 
ATOM     30  C   UNL     1      21.342   6.414 -11.484  0.00  0.00    +0.094 A 
ATOM     31  N   UNL     1      21.509   7.742 -11.280  0.00  0.00    -0.242 NA
BRANCH  30  32
ATOM     32  C   UNL     1      20.172   5.792 -10.882  0.00  0.00    +0.138 A 
ATOM     33  N   UNL     1      18.966   5.676 -11.530  0.00  0.00    -0.127 NA
ATOM     34  N   UNL     1      18.098   5.104 -10.709  0.00  0.00    -0.060 NA
ATOM     35  N   UNL     1      18.722   4.845  -9.534  0.00  0.00    -0.219 N 
ATOM     36  C   UNL     1      18.187   4.269  -8.381  0.00  0.00    +0.114 A 
ATOM     37  C   UNL     1      18.962   4.092  -7.299  0.00  0.00    +0.020 A 
ATOM     38  C   UNL     1      20.354   4.503  -7.361  0.00  0.00    +0.004 A 
ATOM     39  C   UNL     1      20.879   5.055  -8.472  0.00  0.00    +0.030 A 
ATOM     40  C   UNL     1      20.052   5.257  -9.616  0.00  0.00    +0.096 A 
ENDBRANCH  30  32
ENDBRANCH  24  26
ENDBRANCH   5  24
TORSDOF 6
ENDMDL
MODEL 2
REMARK VINA RESULT:   -11.339      0.171     11.837
REMARK INTER + INTRA:         -16.311
REMARK INTER:                 -15.297
REMARK INTRA:                  -1.014
REMARK UNBOUND:                -0.994
REMARK  Name = CHEMBL3311247
REMARK  6 active torsions:
REMARK  status: ('A' for Active; 'I' for Inactive)
REMARK    1  A    between atoms: C_2  and  C_3
REMARK    2  A    between atoms: C_2  and  C_26
REMARK    3  A    between atoms: C_7  and  C_8
REMARK    4  A    between atoms: C_8  and  C_10
REMARK    5  A    between atoms: C_14  and  C_15
REMARK    6  A    between atoms: C_30  and  C_31
REMARK                            x       y       z     vdW  Elec       q    Type
REMARK                         _______ _______ _______ _____ _____    ______ ____
ROOT
ATOM      1  C   UNL     1      22.828  10.624 -12.885  0.00  0.00    +0.113 A 
ATOM      2  C   UNL     1      23.280  11.923 -12.685  0.00  0.00    +0.032 A 
ATOM      3  C   UNL     1      23.477  12.738 -13.798  0.00  0.00    +0.004 A 
ATOM      4  C   UNL     1      23.223  12.232 -15.071  0.00  0.00    +0.032 A 
ATOM      5  C   UNL     1      22.789  10.917 -15.188  0.00  0.00    +0.113 A 
ATOM      6  N   UNL     1      22.587  10.119 -14.116  0.00  0.00    -0.240 NA
ENDROOT
BRANCH   1   8
ATOM      7  O   UNL     1      22.675  10.176 -10.577  0.00  0.00    -0.283 OA
ATOM      8  C   UNL     1      22.670   9.710 -11.718  0.00  0.00    +0.229 C 
BRANCH   8   9
ATOM      9  C   UNL     1      22.550   8.238 -11.909  0.00  0.00    +0.113 A 
ATOM     10  C   UNL     1      23.499   7.581 -12.686  0.00  0.00    +0.032 A 
ATOM     11  C   UNL     1      23.344   6.216 -12.899  0.00  0.00    +0.004 A 
ATOM     12  C   UNL     1      22.254   5.559 -12.334  0.00  0.00    +0.030 A 
ATOM     13  C   UNL     1      21.363   6.282 -11.545  0.00  0.00    +0.094 A 
ATOM     14  N   UNL     1      21.519   7.604 -11.303  0.00  0.00    -0.242 NA
BRANCH  13  15
ATOM     15  C   UNL     1      20.190   5.636 -10.976  0.00  0.00    +0.138 A 
ATOM     16  N   UNL     1      19.020   5.453 -11.674  0.00  0.00    -0.127 NA
ATOM     17  N   UNL     1      18.136   4.876 -10.873  0.00  0.00    -0.060 NA
ATOM     18  N   UNL     1      18.712   4.680  -9.663  0.00  0.00    -0.219 N 
ATOM     19  C   UNL     1      18.146   4.124  -8.516  0.00  0.00    +0.114 A 
ATOM     20  C   UNL     1      18.876   4.013  -7.392  0.00  0.00    +0.020 A 
ATOM     21  C   UNL     1      20.253   4.475  -7.406  0.00  0.00    +0.004 A 
ATOM     22  C   UNL     1      20.809   5.010  -8.511  0.00  0.00    +0.030 A 
ATOM     23  C   UNL     1      20.030   5.140  -9.697  0.00  0.00    +0.096 A 
ENDBRANCH  13  15
ENDBRANCH   8   9
ENDBRANCH   1   8
BRANCH   5  24
ATOM     24  C   UNL     1      22.450  10.369 -16.532  0.00  0.00    +0.229 C 
ATOM     25  O   UNL     1      22.630   9.172 -16.762  0.00  0.00    -0.283 OA
BRANCH  24  26
ATOM     26  C   UNL     1      21.937  11.255 -17.613  0.00  0.00    +0.113 A 
ATOM     27  C   UNL     1      20.564  11.423 -17.752  0.00  0.00    +0.032 A 
ATOM     28  C   UNL     1      20.099  12.211 -18.798  0.00  0.00    +0.004 A 
ATOM     29  C   UNL     1      21.017  12.801 -19.664  0.00  0.00    +0.030 A 
ATOM     30  C   UNL     1      22.377  12.610 -19.441  0.00  0.00    +0.094 A 
ATOM     31  N   UNL     1      22.844  11.871 -18.408  0.00  0.00    -0.242 NA
BRANCH  30  32
ATOM     32  C   UNL     1      23.362  13.175 -20.352  0.00  0.00    +0.138 A 
ATOM     33  N   UNL     1      23.463  14.522 -20.608  0.00  0.00    -0.127 NA
ATOM     34  N   UNL     1      24.422  14.711 -21.502  0.00  0.00    -0.060 NA
ATOM     35  N   UNL     1      24.948  13.506 -21.833  0.00  0.00    -0.219 N 
ATOM     36  C   UNL     1      25.964  13.230 -22.749  0.00  0.00    +0.114 A 
ATOM     37  C   UNL     1      26.356  11.962 -22.952  0.00  0.00    +0.020 A 
ATOM     38  C   UNL     1      25.708  10.901 -22.199  0.00  0.00    +0.004 A 
ATOM     39  C   UNL     1      24.731  11.160 -21.310  0.00  0.00    +0.030 A 
ATOM     40  C   UNL     1      24.305  12.505 -21.105  0.00  0.00    +0.096 A 
ENDBRANCH  30  32
ENDBRANCH  24  26
ENDBRANCH   5  24
TORSDOF 6
ENDMDL
MODEL 3
REMARK VINA RESULT:   -11.240      1.634      2.263
REMARK INTER + INTRA:         -16.177
REMARK INTER:                 -15.408
REMARK INTRA:                  -0.769
REMARK UNBOUND:                -0.994
REMARK  Name = CHEMBL3311247
REMARK  6 active torsions:
REMARK  status: ('A' for Active; 'I' for Inactive)
REMARK    1  A    between atoms: C_2  and  C_3
REMARK    2  A    between atoms: C_2  and  C_26
REMARK    3  A    between atoms: C_7  and  C_8
REMARK    4  A    between atoms: C_8  and  C_10
REMARK    5  A    between atoms: C_14  and  C_15
REMARK    6  A    between atoms: C_30  and  C_31
REMARK                            x       y       z     vdW  Elec       q    Type
REMARK                         _______ _______ _______ _____ _____    ______ ____
ROOT
ATOM      1  C   UNL     1      23.044  10.906 -15.174  0.00  0.00    +0.113 A 
ATOM      2  C   UNL     1      23.369  12.252 -15.052  0.00  0.00    +0.032 A 
ATOM      3  C   UNL     1      23.463  12.802 -13.775  0.00  0.00    +0.004 A 
ATOM      4  C   UNL     1      23.224  11.996 -12.664  0.00  0.00    +0.032 A 
ATOM      5  C   UNL     1      22.886  10.664 -12.871  0.00  0.00    +0.113 A 
ATOM      6  N   UNL     1      22.800  10.117 -14.104  0.00  0.00    -0.240 NA
ENDROOT
BRANCH   1   8
ATOM      7  O   UNL     1      23.364   9.203 -16.770  0.00  0.00    -0.283 OA
ATOM      8  C   UNL     1      22.874  10.308 -16.529  0.00  0.00    +0.229 C 
BRANCH   8   9
ATOM      9  C   UNL     1      22.156  11.044 -17.607  0.00  0.00    +0.113 A 
ATOM     10  C   UNL     1      20.933  10.558 -18.054  0.00  0.00    +0.032 A 
ATOM     11  C   UNL     1      20.301  11.225 -19.096  0.00  0.00    +0.004 A 
ATOM     12  C   UNL     1      20.909  12.348 -19.654  0.00  0.00    +0.030 A 
ATOM     13  C   UNL     1      22.121  12.789 -19.130  0.00  0.00    +0.094 A 
ATOM     14  N   UNL     1      22.732  12.168 -18.095  0.00  0.00    -0.242 NA
BRANCH  13  15
ATOM     15  C   UNL     1      22.806  13.931 -19.717  0.00  0.00    +0.138 A 
ATOM     16  N   UNL     1      23.090  14.030 -21.057  0.00  0.00    -0.127 NA
ATOM     17  N   UNL     1      23.748  15.161 -21.268  0.00  0.00    -0.060 NA
ATOM     18  N   UNL     1      23.897  15.802 -20.083  0.00  0.00    -0.219 N 
ATOM     19  C   UNL     1      24.543  17.012 -19.831  0.00  0.00    +0.114 A 
ATOM     20  C   UNL     1      24.596  17.496 -18.578  0.00  0.00    +0.020 A 
ATOM     21  C   UNL     1      23.965  16.739 -17.510  0.00  0.00    +0.004 A 
ATOM     22  C   UNL     1      23.336  15.571 -17.746  0.00  0.00    +0.030 A 
ATOM     23  C   UNL     1      23.293  15.052 -19.073  0.00  0.00    +0.096 A 
ENDBRANCH  13  15
ENDBRANCH   8   9
ENDBRANCH   1   8
BRANCH   5  24
ATOM     24  C   UNL     1      22.687   9.763 -11.700  0.00  0.00    +0.229 C 
ATOM     25  O   UNL     1      22.689  10.239 -10.562  0.00  0.00    -0.283 OA
BRANCH  24  26
ATOM     26  C   UNL     1      22.529   8.294 -11.881  0.00  0.00    +0.113 A 
ATOM     27  C   UNL     1      23.449   7.610 -12.667  0.00  0.00    +0.032 A 
ATOM     28  C   UNL     1      23.259   6.248 -12.870  0.00  0.00    +0.004 A 
ATOM     29  C   UNL     1      22.162   5.620 -12.284  0.00  0.00    +0.030 A 
ATOM     30  C   UNL     1      21.302   6.368 -11.486  0.00  0.00    +0.094 A 
ATOM     31  N   UNL     1      21.493   7.688 -11.254  0.00  0.00    -0.242 NA
BRANCH  30  32
ATOM     32  C   UNL     1      20.121   5.755 -10.894  0.00  0.00    +0.138 A 
ATOM     33  N   UNL     1      18.922   5.642 -11.556  0.00  0.00    -0.127 NA
ATOM     34  N   UNL     1      18.042   5.078 -10.742  0.00  0.00    -0.060 NA
ATOM     35  N   UNL     1      18.651   4.820  -9.559  0.00  0.00    -0.219 N 
ATOM     36  C   UNL     1      18.100   4.252  -8.409  0.00  0.00    +0.114 A 
ATOM     37  C   UNL     1      18.862   4.076  -7.318  0.00  0.00    +0.020 A 
ATOM     38  C   UNL     1      20.257   4.480  -7.366  0.00  0.00    +0.004 A 
ATOM     39  C   UNL     1      20.797   5.025  -8.473  0.00  0.00    +0.030 A 
ATOM     40  C   UNL     1      19.984   5.226  -9.627  0.00  0.00    +0.096 A 
ENDBRANCH  30  32
ENDBRANCH  24  26
ENDBRANCH   5  24
TORSDOF 6
ENDMDL
