MODEL 1
REMARK VINA RESULT:   -13.047      0.000      0.000
REMARK INTER + INTRA:         -18.470
REMARK INTER:                 -17.623
REMARK INTRA:                  -0.846
REMARK UNBOUND:                -0.846
REMARK  Name = CHEMBL3311247
REMARK  6 active torsions:
REMARK  status: ('A' for Active; 'I' for Inactive)
REMARK    1  A    between atoms: C_2  and  C_3
REMARK    2  A    between atoms: C_2  and  C_26
REMARK    3  A    between atoms: C_7  and  C_8
REMARK    4  A    between atoms: C_8  and  C_10
REMARK    5  A    between atoms: C_14  and  C_15
REMARK    6  A    between atoms: C_30  and  C_31
REMARK                            x       y       z     vdW  Elec       q    Type
REMARK                         _______ _______ _______ _____ _____    ______ ____
ROOT
ATOM      1  C   UNL     1      -6.060 -14.623 -54.479  0.00  0.00    +0.113 A 
ATOM      2  C   UNL     1      -7.243 -14.462 -55.191  0.00  0.00    +0.032 A 
ATOM      3  C   UNL     1      -7.221 -14.658 -56.571  0.00  0.00    +0.004 A 
ATOM      4  C   UNL     1      -6.024 -15.003 -57.194  0.00  0.00    +0.032 A 
ATOM      5  C   UNL     1      -4.881 -15.128 -56.413  0.00  0.00    +0.113 A 
ATOM      6  N   UNL     1      -4.891 -14.947 -55.074  0.00  0.00    -0.240 NA
ENDROOT
BRANCH   1   8
ATOM      7  O   UNL     1      -6.753 -15.029 -52.263  0.00  0.00    -0.283 OA
ATOM      8  C   UNL     1      -6.040 -14.357 -53.012  0.00  0.00    +0.229 C 
BRANCH   8   9
ATOM      9  C   UNL     1      -5.205 -13.262 -52.444  0.00  0.00    +0.113 A 
ATOM     10  C   UNL     1      -5.590 -11.943 -52.656  0.00  0.00    +0.032 A 
ATOM     11  C   UNL     1      -4.773 -10.932 -52.165  0.00  0.00    +0.004 A 
ATOM     12  C   UNL     1      -3.605 -11.271 -51.485  0.00  0.00    +0.030 A 
ATOM     13  C   UNL     1      -3.304 -12.616 -51.289  0.00  0.00    +0.094 A 
ATOM     14  N   UNL     1      -4.107 -13.610 -51.732  0.00  0.00    -0.242 NA
BRANCH  13  15
ATOM     15  C   UNL     1      -2.071 -13.006 -50.622  0.00  0.00    +0.138 A 
ATOM     16  N   UNL     1      -1.098 -13.765 -51.225  0.00  0.00    -0.127 NA
ATOM     17  N   UNL     1      -0.126 -13.980 -50.350  0.00  0.00    -0.060 NA
ATOM     18  N   UNL     1      -0.452 -13.372 -49.184  0.00  0.00    -0.219 N 
ATOM     19  C   UNL     1       0.266 -13.354 -47.988  0.00  0.00    +0.114 A 
ATOM     20  C   UNL     1      -0.221 -12.696 -46.922  0.00  0.00    +0.020 A 
ATOM     21  C   UNL     1      -1.493 -12.006 -47.049  0.00  0.00    +0.004 A 
ATOM     22  C   UNL     1      -2.191 -12.016 -48.201  0.00  0.00    +0.030 A 
ATOM     23  C   UNL     1      -1.681 -12.726 -49.327  0.00  0.00    +0.096 A 
ENDBRANCH  13  15
ENDBRANCH   8   9
ENDBRANCH   1   8
BRANCH   5  24
ATOM     24  C   UNL     1      -3.600 -15.556 -57.044  0.00  0.00    +0.229 C 
ATOM     25  O   UNL     1      -2.572 -15.592 -56.366  0.00  0.00    -0.283 OA
BRANCH  24  26
ATOM     26  C   UNL     1      -3.537 -15.900 -58.492  0.00  0.00    +0.113 A 
ATOM     27  C   UNL     1      -4.170 -15.070 -59.409  0.00  0.00    +0.032 A 
ATOM     28  C   UNL     1      -4.146 -15.432 -60.751  0.00  0.00    +0.004 A 
ATOM     29  C   UNL     1      -3.496 -16.605 -61.127  0.00  0.00    +0.030 A 
ATOM     30  C   UNL     1      -2.860 -17.368 -60.152  0.00  0.00    +0.094 A 
ATOM     31  N   UNL     1      -2.848 -17.010 -58.847  0.00  0.00    -0.242 NA
BRANCH  30  32
ATOM     32  C   UNL     1      -2.209 -18.622 -60.504  0.00  0.00    +0.138 A 
ATOM     33  N   UNL     1      -2.902 -19.767 -60.813  0.00  0.00    -0.127 NA
ATOM     34  N   UNL     1      -2.031 -20.738 -61.047  0.00  0.00    -0.060 NA
ATOM     35  N   UNL     1      -0.779 -20.241 -60.896  0.00  0.00    -0.219 N 
ATOM     36  C   UNL     1       0.438 -20.912 -61.025  0.00  0.00    +0.114 A 
ATOM     37  C   UNL     1       1.591 -20.251 -60.831  0.00  0.00    +0.020 A 
ATOM     38  C   UNL     1       1.539 -18.838 -60.494  0.00  0.00    +0.004 A 
ATOM     39  C   UNL     1       0.368 -18.183 -60.372  0.00  0.00    +0.030 A 
ATOM     40  C   UNL     1      -0.856 -18.888 -60.563  0.00  0.00    +0.096 A 
ENDBRANCH  30  32
ENDBRANCH  24  26
ENDBRANCH   5  24
TORSDOF 6
ENDMDL
MODEL 2
REMARK VINA RESULT:   -13.029      1.080     10.315
REMARK INTER + INTRA:         -18.445
REMARK INTER:                 -17.926
REMARK INTRA:                  -0.519
REMARK UNBOUND:                -0.846
REMARK  Name = CHEMBL3311247
REMARK  6 active torsions:
REMARK  status: ('A' for Active; 'I' for Inactive)
REMARK    1  A    between atoms: C_2  and  C_3
REMARK    2  A    between atoms: C_2  and  C_26
REMARK    3  A    between atoms: C_7  and  C_8
REMARK    4  A    between atoms: C_8  and  C_10
REMARK    5  A    between atoms: C_14  and  C_15
REMARK    6  A    between atoms: C_30  and  C_31
REMARK                            x       y       z     vdW  Elec       q    Type
REMARK                         _______ _______ _______ _____ _____    ______ ____
ROOT
ATOM      1  C   UNL     1      -5.667 -15.102 -56.020  0.00  0.00    +0.113 A 
ATOM      2  C   UNL     1      -6.375 -14.209 -56.815  0.00  0.00    +0.032 A 
ATOM      3  C   UNL     1      -7.023 -13.140 -56.200  0.00  0.00    +0.004 A 
ATOM      4  C   UNL     1      -6.951 -13.000 -54.816  0.00  0.00    +0.032 A 
ATOM      5  C   UNL     1      -6.237 -13.947 -54.090  0.00  0.00    +0.113 A 
ATOM      6  N   UNL     1      -5.598 -14.983 -54.676  0.00  0.00    -0.240 NA
ENDROOT
BRANCH   1   8
ATOM      7  O   UNL     1      -5.150 -17.399 -56.122  0.00  0.00    -0.283 OA
ATOM      8  C   UNL     1      -5.017 -16.291 -56.645  0.00  0.00    +0.229 C 
BRANCH   8   9
ATOM      9  C   UNL     1      -4.176 -16.150 -57.865  0.00  0.00    +0.113 A 
ATOM     10  C   UNL     1      -4.408 -15.080 -58.723  0.00  0.00    +0.032 A 
ATOM     11  C   UNL     1      -3.651 -14.992 -59.885  0.00  0.00    +0.004 A 
ATOM     12  C   UNL     1      -2.695 -15.970 -60.150  0.00  0.00    +0.030 A 
ATOM     13  C   UNL     1      -2.503 -16.995 -59.227  0.00  0.00    +0.094 A 
ATOM     14  N   UNL     1      -3.210 -17.075 -58.077  0.00  0.00    -0.242 NA
BRANCH  13  15
ATOM     15  C   UNL     1      -1.544 -18.057 -59.493  0.00  0.00    +0.138 A 
ATOM     16  N   UNL     1      -1.811 -19.385 -59.263  0.00  0.00    -0.127 NA
ATOM     17  N   UNL     1      -0.731 -20.092 -59.567  0.00  0.00    -0.060 NA
ATOM     18  N   UNL     1       0.235 -19.243 -59.992  0.00  0.00    -0.219 N 
ATOM     19  C   UNL     1       1.537 -19.546 -60.392  0.00  0.00    +0.114 A 
ATOM     20  C   UNL     1       2.366 -18.563 -60.781  0.00  0.00    +0.020 A 
ATOM     21  C   UNL     1       1.876 -17.195 -60.780  0.00  0.00    +0.004 A 
ATOM     22  C   UNL     1       0.620 -16.894 -60.398  0.00  0.00    +0.030 A 
ATOM     23  C   UNL     1      -0.255 -17.936 -59.972  0.00  0.00    +0.096 A 
ENDBRANCH  13  15
ENDBRANCH   8   9
ENDBRANCH   1   8
BRANCH   5  24
ATOM     24  C   UNL     1      -6.091 -13.787 -52.615  0.00  0.00    +0.229 C 
ATOM     25  O   UNL     1      -6.784 -14.471 -51.859  0.00  0.00    -0.283 OA
BRANCH  24  26
ATOM     26  C   UNL     1      -5.151 -12.784 -52.043  0.00  0.00    +0.113 A 
ATOM     27  C   UNL     1      -5.441 -11.432 -52.184  0.00  0.00    +0.032 A 
ATOM     28  C   UNL     1      -4.528 -10.507 -51.691  0.00  0.00    +0.004 A 
ATOM     29  C   UNL     1      -3.363 -10.963 -51.077  0.00  0.00    +0.030 A 
ATOM     30  C   UNL     1      -3.159 -12.333 -50.947  0.00  0.00    +0.094 A 
ATOM     31  N   UNL     1      -4.055 -13.244 -51.395  0.00  0.00    -0.242 NA
BRANCH  30  32
ATOM     32  C   UNL     1      -1.933 -12.844 -50.351  0.00  0.00    +0.138 A 
ATOM     33  N   UNL     1      -1.028 -13.615 -51.040  0.00  0.00    -0.127 NA
ATOM     34  N   UNL     1      -0.046 -13.951 -50.216  0.00  0.00    -0.060 NA
ATOM     35  N   UNL     1      -0.298 -13.409 -49.000  0.00  0.00    -0.219 N 
ATOM     36  C   UNL     1       0.457 -13.522 -47.832  0.00  0.00    +0.114 A 
ATOM     37  C   UNL     1       0.045 -12.914 -46.707  0.00  0.00    +0.020 A 
ATOM     38  C   UNL     1      -1.186 -12.142 -46.740  0.00  0.00    +0.004 A 
ATOM     39  C   UNL     1      -1.917 -12.025 -47.866  0.00  0.00    +0.030 A 
ATOM     40  C   UNL     1      -1.488 -12.682 -49.055  0.00  0.00    +0.096 A 
ENDBRANCH  30  32
ENDBRANCH  24  26
ENDBRANCH   5  24
TORSDOF 6
ENDMDL
MODEL 3
REMARK VINA RESULT:   -12.561      4.337     11.161
REMARK INTER + INTRA:         -17.813
REMARK INTER:                 -17.119
REMARK INTRA:                  -0.695
REMARK UNBOUND:                -0.846
REMARK  Name = CHEMBL3311247
REMARK  6 active torsions:
REMARK  status: ('A' for Active; 'I' for Inactive)
REMARK    1  A    between atoms: C_2  and  C_3
REMARK    2  A    between atoms: C_2  and  C_26
REMARK    3  A    between atoms: C_7  and  C_8
REMARK    4  A    between atoms: C_8  and  C_10
REMARK    5  A    between atoms: C_14  and  C_15
REMARK    6  A    between atoms: C_30  and  C_31
REMARK                            x       y       z     vdW  Elec       q    Type
REMARK                         _______ _______ _______ _____ _____    ______ ____
ROOT
ATOM      1  C   UNL     1      -2.700 -17.740 -60.545  0.00  0.00    +0.113 A 
ATOM      2  C   UNL     1      -2.322 -19.042 -60.242  0.00  0.00    +0.032 A 
ATOM      3  C   UNL     1      -2.167 -19.396 -58.903  0.00  0.00    +0.004 A 
ATOM      4  C   UNL     1      -2.387 -18.441 -57.913  0.00  0.00    +0.032 A 
ATOM      5  C   UNL     1      -2.746 -17.155 -58.300  0.00  0.00    +0.113 A 
ATOM      6  N   UNL     1      -2.907 -16.802 -59.594  0.00  0.00    -0.240 NA
ENDROOT
BRANCH   1   8
ATOM      7  O   UNL     1      -3.772 -16.634 -62.328  0.00  0.00    -0.283 OA
ATOM      8  C   UNL     1      -2.811 -17.317 -61.971  0.00  0.00    +0.229 C 
BRANCH   8   9
ATOM      9  C   UNL     1      -1.799 -17.744 -62.977  0.00  0.00    +0.113 A 
ATOM     10  C   UNL     1      -2.181 -18.623 -63.984  0.00  0.00    +0.032 A 
ATOM     11  C   UNL     1      -1.214 -19.053 -64.884  0.00  0.00    +0.004 A 
ATOM     12  C   UNL     1       0.094 -18.596 -64.747  0.00  0.00    +0.030 A 
ATOM     13  C   UNL     1       0.392 -17.694 -63.729  0.00  0.00    +0.094 A 
ATOM     14  N   UNL     1      -0.547 -17.241 -62.866  0.00  0.00    -0.242 NA
BRANCH  13  15
ATOM     15  C   UNL     1       1.756 -17.230 -63.530  0.00  0.00    +0.138 A 
ATOM     16  N   UNL     1       2.716 -17.274 -64.512  0.00  0.00    -0.127 NA
ATOM     17  N   UNL     1       3.856 -16.819 -64.011  0.00  0.00    -0.060 NA
ATOM     18  N   UNL     1       3.652 -16.479 -62.715  0.00  0.00    -0.219 N 
ATOM     19  C   UNL     1       4.576 -15.977 -61.799  0.00  0.00    +0.114 A 
ATOM     20  C   UNL     1       4.191 -15.698 -60.542  0.00  0.00    +0.020 A 
ATOM     21  C   UNL     1       2.805 -15.923 -60.169  0.00  0.00    +0.004 A 
ATOM     22  C   UNL     1       1.906 -16.404 -61.050  0.00  0.00    +0.030 A 
ATOM     23  C   UNL     1       2.318 -16.713 -62.379  0.00  0.00    +0.096 A 
ENDBRANCH  13  15
ENDBRANCH   8   9
ENDBRANCH   1   8
BRANCH   5  24
ATOM     24  C   UNL     1      -3.049 -16.130 -57.260  0.00  0.00    +0.229 C 
ATOM     25  O   UNL     1      -2.151 -15.744 -56.510  0.00  0.00    -0.283 OA
BRANCH  24  26
ATOM     26  C   UNL     1      -4.429 -15.599 -57.088  0.00  0.00    +0.113 A 
ATOM     27  C   UNL     1      -5.196 -15.339 -58.217  0.00  0.00    +0.032 A 
ATOM     28  C   UNL     1      -6.463 -14.794 -58.042  0.00  0.00    +0.004 A 
ATOM     29  C   UNL     1      -6.917 -14.529 -56.752  0.00  0.00    +0.030 A 
ATOM     30  C   UNL     1      -6.100 -14.845 -55.670  0.00  0.00    +0.094 A 
ATOM     31  N   UNL     1      -4.878 -15.405 -55.825  0.00  0.00    -0.242 NA
BRANCH  30  32
ATOM     32  C   UNL     1      -6.524 -14.541 -54.311  0.00  0.00    +0.138 A 
ATOM     33  N   UNL     1      -5.651 -14.459 -53.253  0.00  0.00    -0.127 NA
ATOM     34  N   UNL     1      -6.344 -14.208 -52.152  0.00  0.00    -0.060 NA
ATOM     35  N   UNL     1      -7.657 -14.125 -52.478  0.00  0.00    -0.219 N 
ATOM     36  C   UNL     1      -8.744 -13.897 -51.632  0.00  0.00    +0.114 A 
ATOM     37  C   UNL     1      -9.987 -13.852 -52.137  0.00  0.00    +0.020 A 
ATOM     38  C   UNL     1     -10.169 -14.039 -53.567  0.00  0.00    +0.004 A 
ATOM     39  C   UNL     1      -9.125 -14.255 -54.390  0.00  0.00    +0.030 A 
ATOM     40  C   UNL     1      -7.806 -14.318 -53.851  0.00  0.00    +0.096 A 
ENDBRANCH  30  32
ENDBRANCH  24  26
ENDBRANCH   5  24
TORSDOF 6
ENDMDL
