MODEL 1
REMARK VINA RESULT:   -14.188      0.000      0.000
REMARK INTER + INTRA:         -20.685
REMARK INTER:                 -19.165
REMARK INTRA:                  -1.521
REMARK UNBOUND:                -1.521
REMARK  Name = CHEMBL3311247
REMARK  6 active torsions:
REMARK  status: ('A' for Active; 'I' for Inactive)
REMARK    1  A    between atoms: C_2  and  C_3
REMARK    2  A    between atoms: C_2  and  C_26
REMARK    3  A    between atoms: C_7  and  C_8
REMARK    4  A    between atoms: C_8  and  C_10
REMARK    5  A    between atoms: C_14  and  C_15
REMARK    6  A    between atoms: C_30  and  C_31
REMARK                            x       y       z     vdW  Elec       q    Type
REMARK                         _______ _______ _______ _____ _____    ______ ____
ROOT
ATOM      1  C   UNL     1     -27.629   2.263  10.780  0.00  0.00    +0.113 A 
ATOM      2  C   UNL     1     -26.987   2.440  12.000  0.00  0.00    +0.032 A 
ATOM      3  C   UNL     1     -26.041   3.458  12.113  0.00  0.00    +0.004 A 
ATOM      4  C   UNL     1     -25.763   4.259  11.008  0.00  0.00    +0.032 A 
ATOM      5  C   UNL     1     -26.435   4.006   9.818  0.00  0.00    +0.113 A 
ATOM      6  N   UNL     1     -27.360   3.027   9.698  0.00  0.00    -0.240 NA
ENDROOT
BRANCH   1   8
ATOM      7  O   UNL     1     -28.232   0.102  10.061  0.00  0.00    -0.283 OA
ATOM      8  C   UNL     1     -28.598   1.142  10.612  0.00  0.00    +0.229 C 
BRANCH   8   9
ATOM      9  C   UNL     1     -30.011   1.277  11.063  0.00  0.00    +0.113 A 
ATOM     10  C   UNL     1     -30.356   0.834  12.335  0.00  0.00    +0.032 A 
ATOM     11  C   UNL     1     -31.688   0.918  12.722  0.00  0.00    +0.004 A 
ATOM     12  C   UNL     1     -32.624   1.436  11.830  0.00  0.00    +0.030 A 
ATOM     13  C   UNL     1     -32.194   1.885  10.583  0.00  0.00    +0.094 A 
ATOM     14  N   UNL     1     -30.896   1.839  10.207  0.00  0.00    -0.242 NA
BRANCH  13  15
ATOM     15  C   UNL     1     -33.151   2.391   9.611  0.00  0.00    +0.138 A 
ATOM     16  N   UNL     1     -34.183   1.635   9.109  0.00  0.00    -0.127 NA
ATOM     17  N   UNL     1     -34.848   2.363   8.222  0.00  0.00    -0.060 NA
ATOM     18  N   UNL     1     -34.263   3.582   8.140  0.00  0.00    -0.219 N 
ATOM     19  C   UNL     1     -34.616   4.656   7.321  0.00  0.00    +0.114 A 
ATOM     20  C   UNL     1     -33.911   5.799   7.372  0.00  0.00    +0.020 A 
ATOM     21  C   UNL     1     -32.791   5.888   8.293  0.00  0.00    +0.004 A 
ATOM     22  C   UNL     1     -32.446   4.857   9.089  0.00  0.00    +0.030 A 
ATOM     23  C   UNL     1     -33.186   3.641   9.025  0.00  0.00    +0.096 A 
ENDBRANCH  13  15
ENDBRANCH   8   9
ENDBRANCH   1   8
BRANCH   5  24
ATOM     24  C   UNL     1     -26.203   4.887   8.638  0.00  0.00    +0.229 C 
ATOM     25  O   UNL     1     -25.202   4.713   7.939  0.00  0.00    -0.283 OA
BRANCH  24  26
ATOM     26  C   UNL     1     -27.138   6.000   8.317  0.00  0.00    +0.113 A 
ATOM     27  C   UNL     1     -28.485   5.857   8.627  0.00  0.00    +0.032 A 
ATOM     28  C   UNL     1     -29.355   6.883   8.274  0.00  0.00    +0.004 A 
ATOM     29  C   UNL     1     -28.851   8.008   7.626  0.00  0.00    +0.030 A 
ATOM     30  C   UNL     1     -27.484   8.089   7.377  0.00  0.00    +0.094 A 
ATOM     31  N   UNL     1     -26.622   7.112   7.744  0.00  0.00    -0.242 NA
BRANCH  30  32
ATOM     32  C   UNL     1     -26.930   9.230   6.663  0.00  0.00    +0.138 A 
ATOM     33  N   UNL     1     -25.615   9.304   6.270  0.00  0.00    -0.127 NA
ATOM     34  N   UNL     1     -25.414  10.475   5.683  0.00  0.00    -0.060 NA
ATOM     35  N   UNL     1     -26.581  11.165   5.686  0.00  0.00    -0.219 N 
ATOM     36  C   UNL     1     -26.827  12.447   5.193  0.00  0.00    +0.114 A 
ATOM     37  C   UNL     1     -28.057  12.977   5.289  0.00  0.00    +0.020 A 
ATOM     38  C   UNL     1     -29.111  12.190   5.905  0.00  0.00    +0.004 A 
ATOM     39  C   UNL     1     -28.883  10.950   6.379  0.00  0.00    +0.030 A 
ATOM     40  C   UNL     1     -27.573  10.393   6.291  0.00  0.00    +0.096 A 
ENDBRANCH  30  32
ENDBRANCH  24  26
ENDBRANCH   5  24
TORSDOF 6
ENDMDL
MODEL 2
REMARK VINA RESULT:   -14.145      2.987      6.681
REMARK INTER + INTRA:         -20.628
REMARK INTER:                 -19.273
REMARK INTRA:                  -1.355
REMARK UNBOUND:                -1.521
REMARK  Name = CHEMBL3311247
REMARK  6 active torsions:
REMARK  status: ('A' for Active; 'I' for Inactive)
REMARK    1  A    between atoms: C_2  and  C_3
REMARK    2  A    between atoms: C_2  and  C_26
REMARK    3  A    between atoms: C_7  and  C_8
REMARK    4  A    between atoms: C_8  and  C_10
REMARK    5  A    between atoms: C_14  and  C_15
REMARK    6  A    between atoms: C_30  and  C_31
REMARK                            x       y       z     vdW  Elec       q    Type
REMARK                         _______ _______ _______ _____ _____    ______ ____
ROOT
ATOM      1  C   UNL     1     -31.225   8.808   6.812  0.00  0.00    +0.113 A 
ATOM      2  C   UNL     1     -31.724   9.863   7.567  0.00  0.00    +0.032 A 
ATOM      3  C   UNL     1     -30.872  10.921   7.877  0.00  0.00    +0.004 A 
ATOM      4  C   UNL     1     -29.553  10.891   7.430  0.00  0.00    +0.032 A 
ATOM      5  C   UNL     1     -29.126   9.791   6.695  0.00  0.00    +0.113 A 
ATOM      6  N   UNL     1     -29.945   8.763   6.382  0.00  0.00    -0.240 NA
ENDROOT
BRANCH   1   8
ATOM      7  O   UNL     1     -32.579   7.500   5.395  0.00  0.00    -0.283 OA
ATOM      8  C   UNL     1     -32.096   7.633   6.521  0.00  0.00    +0.229 C 
BRANCH   8   9
ATOM      9  C   UNL     1     -32.424   6.642   7.582  0.00  0.00    +0.113 A 
ATOM     10  C   UNL     1     -31.416   6.217   8.441  0.00  0.00    +0.032 A 
ATOM     11  C   UNL     1     -31.726   5.253   9.393  0.00  0.00    +0.004 A 
ATOM     12  C   UNL     1     -33.022   4.747   9.453  0.00  0.00    +0.030 A 
ATOM     13  C   UNL     1     -33.983   5.244   8.576  0.00  0.00    +0.094 A 
ATOM     14  N   UNL     1     -33.703   6.206   7.667  0.00  0.00    -0.242 NA
BRANCH  13  15
ATOM     15  C   UNL     1     -35.335   4.707   8.581  0.00  0.00    +0.138 A 
ATOM     16  N   UNL     1     -35.700   3.583   7.880  0.00  0.00    -0.127 NA
ATOM     17  N   UNL     1     -36.997   3.377   8.056  0.00  0.00    -0.060 NA
ATOM     18  N   UNL     1     -37.483   4.351   8.864  0.00  0.00    -0.219 N 
ATOM     19  C   UNL     1     -38.796   4.540   9.296  0.00  0.00    +0.114 A 
ATOM     20  C   UNL     1     -39.096   5.575  10.099  0.00  0.00    +0.020 A 
ATOM     21  C   UNL     1     -38.031   6.476  10.504  0.00  0.00    +0.004 A 
ATOM     22  C   UNL     1     -36.760   6.299  10.093  0.00  0.00    +0.030 A 
ATOM     23  C   UNL     1     -36.445   5.209   9.230  0.00  0.00    +0.096 A 
ENDBRANCH  13  15
ENDBRANCH   8   9
ENDBRANCH   1   8
BRANCH   5  24
ATOM     24  C   UNL     1     -27.738   9.761   6.151  0.00  0.00    +0.229 C 
ATOM     25  O   UNL     1     -27.424  10.540   5.248  0.00  0.00    -0.283 OA
BRANCH  24  26
ATOM     26  C   UNL     1     -26.740   8.777   6.652  0.00  0.00    +0.113 A 
ATOM     27  C   UNL     1     -25.399   8.957   6.334  0.00  0.00    +0.032 A 
ATOM     28  C   UNL     1     -24.486   8.001   6.765  0.00  0.00    +0.004 A 
ATOM     29  C   UNL     1     -24.942   6.905   7.495  0.00  0.00    +0.030 A 
ATOM     30  C   UNL     1     -26.297   6.812   7.799  0.00  0.00    +0.094 A 
ATOM     31  N   UNL     1     -27.192   7.752   7.412  0.00  0.00    -0.242 NA
BRANCH  30  32
ATOM     32  C   UNL     1     -26.815   5.659   8.521  0.00  0.00    +0.138 A 
ATOM     33  N   UNL     1     -28.134   5.276   8.477  0.00  0.00    -0.127 NA
ATOM     34  N   UNL     1     -28.294   4.222   9.264  0.00  0.00    -0.060 NA
ATOM     35  N   UNL     1     -27.097   3.913   9.820  0.00  0.00    -0.219 N 
ATOM     36  C   UNL     1     -26.804   2.892  10.726  0.00  0.00    +0.114 A 
ATOM     37  C   UNL     1     -25.549   2.738  11.177  0.00  0.00    +0.020 A 
ATOM     38  C   UNL     1     -24.517   3.643  10.700  0.00  0.00    +0.004 A 
ATOM     39  C   UNL     1     -24.791   4.628   9.822  0.00  0.00    +0.030 A 
ATOM     40  C   UNL     1     -26.127   4.801   9.355  0.00  0.00    +0.096 A 
ENDBRANCH  30  32
ENDBRANCH  24  26
ENDBRANCH   5  24
TORSDOF 6
ENDMDL
MODEL 3
REMARK VINA RESULT:   -14.030      3.432      6.131
REMARK INTER + INTRA:         -20.471
REMARK INTER:                 -19.499
REMARK INTRA:                  -0.973
REMARK UNBOUND:                -1.521
REMARK  Name = CHEMBL3311247
REMARK  6 active torsions:
REMARK  status: ('A' for Active; 'I' for Inactive)
REMARK    1  A    between atoms: C_2  and  C_3
REMARK    2  A    between atoms: C_2  and  C_26
REMARK    3  A    between atoms: C_7  and  C_8
REMARK    4  A    between atoms: C_8  and  C_10
REMARK    5  A    between atoms: C_14  and  C_15
REMARK    6  A    between atoms: C_30  and  C_31
REMARK                            x       y       z     vdW  Elec       q    Type
REMARK                         _______ _______ _______ _____ _____    ______ ____
ROOT
ATOM      1  C   UNL     1     -33.411   6.987   6.992  0.00  0.00    +0.113 A 
ATOM      2  C   UNL     1     -33.122   6.560   5.701  0.00  0.00    +0.032 A 
ATOM      3  C   UNL     1     -32.277   7.340   4.914  0.00  0.00    +0.004 A 
ATOM      4  C   UNL     1     -31.754   8.521   5.436  0.00  0.00    +0.032 A 
ATOM      5  C   UNL     1     -32.105   8.888   6.729  0.00  0.00    +0.113 A 
ATOM      6  N   UNL     1     -32.917   8.136   7.505  0.00  0.00    -0.240 NA
ENDROOT
BRANCH   1   8
ATOM      7  O   UNL     1     -35.551   6.530   7.864  0.00  0.00    -0.283 OA
ATOM      8  C   UNL     1     -34.362   6.206   7.832  0.00  0.00    +0.229 C 
BRANCH   8   9
ATOM      9  C   UNL     1     -33.889   5.067   8.666  0.00  0.00    +0.113 A 
ATOM     10  C   UNL     1     -32.525   4.916   8.887  0.00  0.00    +0.032 A 
ATOM     11  C   UNL     1     -32.095   3.818   9.624  0.00  0.00    +0.004 A 
ATOM     12  C   UNL     1     -33.036   2.914  10.110  0.00  0.00    +0.030 A 
ATOM     13  C   UNL     1     -34.387   3.150   9.870  0.00  0.00    +0.094 A 
ATOM     14  N   UNL     1     -34.822   4.232   9.183  0.00  0.00    -0.242 NA
BRANCH  13  15
ATOM     15  C   UNL     1     -35.394   2.204  10.326  0.00  0.00    +0.138 A 
ATOM     16  N   UNL     1     -35.145   0.862  10.487  0.00  0.00    -0.127 NA
ATOM     17  N   UNL     1     -36.266   0.267  10.872  0.00  0.00    -0.060 NA
ATOM     18  N   UNL     1     -37.241   1.203  10.964  0.00  0.00    -0.219 N 
ATOM     19  C   UNL     1     -38.580   1.024  11.313  0.00  0.00    +0.114 A 
ATOM     20  C   UNL     1     -39.412   2.079  11.348  0.00  0.00    +0.020 A 
ATOM     21  C   UNL     1     -38.886   3.394  11.022  0.00  0.00    +0.004 A 
ATOM     22  C   UNL     1     -37.594   3.576  10.687  0.00  0.00    +0.030 A 
ATOM     23  C   UNL     1     -36.715   2.454  10.637  0.00  0.00    +0.096 A 
ENDBRANCH  13  15
ENDBRANCH   8   9
ENDBRANCH   1   8
BRANCH   5  24
ATOM     24  C   UNL     1     -31.510  10.114   7.335  0.00  0.00    +0.229 C 
ATOM     25  O   UNL     1     -32.104  10.688   8.249  0.00  0.00    -0.283 OA
BRANCH  24  26
ATOM     26  C   UNL     1     -30.230  10.677   6.823  0.00  0.00    +0.113 A 
ATOM     27  C   UNL     1     -30.238  11.934   6.229  0.00  0.00    +0.032 A 
ATOM     28  C   UNL     1     -29.046  12.424   5.709  0.00  0.00    +0.004 A 
ATOM     29  C   UNL     1     -27.894  11.646   5.799  0.00  0.00    +0.030 A 
ATOM     30  C   UNL     1     -27.961  10.410   6.436  0.00  0.00    +0.094 A 
ATOM     31  N   UNL     1     -29.108   9.934   6.975  0.00  0.00    -0.242 NA
BRANCH  30  32
ATOM     32  C   UNL     1     -26.787   9.552   6.509  0.00  0.00    +0.138 A 
ATOM     33  N   UNL     1     -25.567   9.902   5.982  0.00  0.00    -0.127 NA
ATOM     34  N   UNL     1     -24.721   8.900   6.175  0.00  0.00    -0.060 NA
ATOM     35  N   UNL     1     -25.373   7.903   6.822  0.00  0.00    -0.219 N 
ATOM     36  C   UNL     1     -24.877   6.657   7.208  0.00  0.00    +0.114 A 
ATOM     37  C   UNL     1     -25.678   5.785   7.841  0.00  0.00    +0.020 A 
ATOM     38  C   UNL     1     -27.053   6.169   8.115  0.00  0.00    +0.004 A 
ATOM     39  C   UNL     1     -27.537   7.372   7.750  0.00  0.00    +0.030 A 
ATOM     40  C   UNL     1     -26.690   8.292   7.064  0.00  0.00    +0.096 A 
ENDBRANCH  30  32
ENDBRANCH  24  26
ENDBRANCH   5  24
TORSDOF 6
ENDMDL
