MODEL 1
REMARK VINA RESULT:   -11.452      0.000      0.000
REMARK INTER + INTRA:         -14.666
REMARK INTER:                 -14.130
REMARK INTRA:                  -0.537
REMARK UNBOUND:                -0.537
REMARK  Name = CHEMBL4435994
REMARK  5 active torsions:
REMARK  status: ('A' for Active; 'I' for Inactive)
REMARK    1  A    between atoms: C_1  and  C_2
REMARK    2  A    between atoms: C_5  and  S_6
REMARK    3  A    between atoms: S_6  and  N_9
REMARK    4  A    between atoms: N_9  and  C_10
REMARK    5  A    between atoms: C_15  and  C_16
REMARK                            x       y       z     vdW  Elec       q    Type
REMARK                         _______ _______ _______ _____ _____    ______ ____
ROOT
ATOM      1  C   UNL     1      -7.611 -14.017 -52.749  0.00  0.00    +0.060 A 
ATOM      2  C   UNL     1      -8.295 -13.916 -51.532  0.00  0.00    +0.025 A 
ATOM      3  C   UNL     1      -9.671 -14.144 -51.468  0.00  0.00    +0.002 A 
ATOM      4  C   UNL     1     -10.377 -14.471 -52.621  0.00  0.00    +0.001 A 
ATOM      5  C   UNL     1      -9.716 -14.538 -53.849  0.00  0.00    +0.015 A 
ATOM      6  C   UNL     1      -8.336 -14.276 -53.933  0.00  0.00    +0.059 A 
ENDROOT
BRANCH   6   7
ATOM      7  C   UNL     1      -7.640 -14.290 -55.261  0.00  0.00    +0.252 C 
ATOM      8  O   UNL     1      -7.982 -13.465 -56.102  0.00  0.00    -0.270 OA
ATOM      9  N   UNL     1      -6.709 -15.290 -55.433  0.00  0.00    -0.261 N 
ATOM     10  C   UNL     1      -5.906 -15.492 -56.528  0.00  0.00    +0.166 A 
ATOM     11  N   UNL     1      -5.126 -16.544 -56.590  0.00  0.00    -0.224 NA
ATOM     12  C   UNL     1      -4.401 -16.526 -57.781  0.00  0.00    +0.088 A 
ATOM     13  C   UNL     1      -4.653 -15.422 -58.600  0.00  0.00    +0.041 A 
ATOM     14  C   UNL     1      -4.011 -15.242 -59.834  0.00  0.00    +0.018 A 
ATOM     15  C   UNL     1      -3.087 -16.207 -60.250  0.00  0.00    +0.010 A 
ATOM     16  C   UNL     1      -2.800 -17.329 -59.466  0.00  0.00    -0.016 A 
ATOM     17  C   UNL     1      -1.874 -18.300 -59.878  0.00  0.00    +0.008 A 
ATOM     18  C   UNL     1      -1.603 -19.414 -59.078  0.00  0.00    +0.001 A 
ATOM     19  C   UNL     1      -2.251 -19.577 -57.856  0.00  0.00    +0.001 A 
ATOM     20  C   UNL     1      -3.175 -18.625 -57.425  0.00  0.00    +0.010 A 
ATOM     21  C   UNL     1      -3.456 -17.499 -58.222  0.00  0.00    +0.009 A 
ATOM     22  S   UNL     1      -5.819 -14.413 -57.835  0.00  0.00    -0.052 S 
ATOM     23  H   UNL     1      -6.622 -16.035 -54.759  0.00  0.00    +0.157 HD
ENDBRANCH   6   7
BRANCH   1  24
ATOM     24  N   UNL     1      -6.184 -13.828 -52.768  0.00  0.00    -0.216 N 
ATOM     25  H   UNL     1      -5.687 -14.329 -52.016  0.00  0.00    +0.174 HD
BRANCH  24  26
ATOM     26  S   UNL     1      -5.578 -12.239 -52.809  0.00  0.00    +0.072 S 
ATOM     27  O   UNL     1      -5.241 -11.956 -54.188  0.00  0.00    -0.150 OA
ATOM     28  O   UNL     1      -6.473 -11.370 -52.073  0.00  0.00    -0.150 OA
BRANCH  26  33
ATOM     29  C   UNL     1      -0.383 -12.625 -49.686  0.00  0.00    +0.044 C 
ATOM     30  C   UNL     1      -1.680 -12.541 -50.435  0.00  0.00    -0.050 A 
ATOM     31  C   UNL     1      -2.409 -11.345 -50.454  0.00  0.00    +0.005 A 
ATOM     32  C   UNL     1      -3.602 -11.254 -51.173  0.00  0.00    +0.029 A 
ATOM     33  C   UNL     1      -4.056 -12.358 -51.897  0.00  0.00    +0.109 A 
ATOM     34  C   UNL     1      -3.342 -13.559 -51.885  0.00  0.00    +0.029 A 
ATOM     35  C   UNL     1      -2.150 -13.644 -51.163  0.00  0.00    +0.005 A 
ENDBRANCH  26  33
ENDBRANCH  24  26
ENDBRANCH   1  24
TORSDOF 4
ENDMDL
MODEL 2
REMARK VINA RESULT:   -11.330      1.748      2.710
REMARK INTER + INTRA:         -14.516
REMARK INTER:                 -14.182
REMARK INTRA:                  -0.334
REMARK UNBOUND:                -0.537
REMARK  Name = CHEMBL4435994
REMARK  5 active torsions:
REMARK  status: ('A' for Active; 'I' for Inactive)
REMARK    1  A    between atoms: C_1  and  C_2
REMARK    2  A    between atoms: C_5  and  S_6
REMARK    3  A    between atoms: S_6  and  N_9
REMARK    4  A    between atoms: N_9  and  C_10
REMARK    5  A    between atoms: C_15  and  C_16
REMARK                            x       y       z     vdW  Elec       q    Type
REMARK                         _______ _______ _______ _____ _____    ______ ____
ROOT
ATOM      1  C   UNL     1      -7.221 -13.077 -54.363  0.00  0.00    +0.060 A 
ATOM      2  C   UNL     1      -8.477 -12.595 -53.980  0.00  0.00    +0.025 A 
ATOM      3  C   UNL     1      -9.634 -13.329 -54.247  0.00  0.00    +0.002 A 
ATOM      4  C   UNL     1      -9.545 -14.552 -54.903  0.00  0.00    +0.001 A 
ATOM      5  C   UNL     1      -8.303 -15.029 -55.326  0.00  0.00    +0.015 A 
ATOM      6  C   UNL     1      -7.134 -14.282 -55.094  0.00  0.00    +0.059 A 
ENDROOT
BRANCH   6   7
ATOM      7  C   UNL     1      -5.809 -14.768 -55.602  0.00  0.00    +0.252 C 
ATOM      8  O   UNL     1      -4.867 -14.805 -54.816  0.00  0.00    -0.270 OA
ATOM      9  N   UNL     1      -5.762 -15.073 -56.943  0.00  0.00    -0.261 N 
ATOM     10  C   UNL     1      -4.693 -15.579 -57.640  0.00  0.00    +0.166 A 
ATOM     11  N   UNL     1      -4.764 -15.735 -58.939  0.00  0.00    -0.224 NA
ATOM     12  C   UNL     1      -3.571 -16.274 -59.417  0.00  0.00    +0.088 A 
ATOM     13  C   UNL     1      -2.610 -16.527 -58.435  0.00  0.00    +0.041 A 
ATOM     14  C   UNL     1      -1.352 -17.069 -58.738  0.00  0.00    +0.018 A 
ATOM     15  C   UNL     1      -1.059 -17.364 -60.074  0.00  0.00    +0.010 A 
ATOM     16  C   UNL     1      -1.987 -17.129 -61.093  0.00  0.00    -0.016 A 
ATOM     17  C   UNL     1      -1.698 -17.423 -62.435  0.00  0.00    +0.008 A 
ATOM     18  C   UNL     1      -2.641 -17.180 -63.438  0.00  0.00    +0.001 A 
ATOM     19  C   UNL     1      -3.884 -16.640 -63.119  0.00  0.00    +0.001 A 
ATOM     20  C   UNL     1      -4.195 -16.340 -61.793  0.00  0.00    +0.010 A 
ATOM     21  C   UNL     1      -3.253 -16.581 -60.774  0.00  0.00    +0.009 A 
ATOM     22  S   UNL     1      -3.247 -16.073 -56.901  0.00  0.00    -0.052 S 
ATOM     23  H   UNL     1      -6.532 -14.840 -57.552  0.00  0.00    +0.157 HD
ENDBRANCH   6   7
BRANCH   1  24
ATOM     24  N   UNL     1      -6.045 -12.319 -54.024  0.00  0.00    -0.216 N 
ATOM     25  H   UNL     1      -5.163 -12.841 -54.139  0.00  0.00    +0.174 HD
BRANCH  24  26
ATOM     26  S   UNL     1      -5.987 -11.550 -52.507  0.00  0.00    +0.072 S 
ATOM     27  O   UNL     1      -5.898 -10.128 -52.762  0.00  0.00    -0.150 OA
ATOM     28  O   UNL     1      -7.033 -12.087 -51.662  0.00  0.00    -0.150 OA
BRANCH  26  33
ATOM     29  C   UNL     1      -0.647 -13.366 -50.251  0.00  0.00    +0.044 C 
ATOM     30  C   UNL     1      -1.952 -12.905 -50.830  0.00  0.00    -0.050 A 
ATOM     31  C   UNL     1      -2.729 -13.778 -51.604  0.00  0.00    +0.005 A 
ATOM     32  C   UNL     1      -3.957 -13.363 -52.121  0.00  0.00    +0.029 A 
ATOM     33  C   UNL     1      -4.422 -12.076 -51.843  0.00  0.00    +0.109 A 
ATOM     34  C   UNL     1      -3.657 -11.193 -51.076  0.00  0.00    +0.029 A 
ATOM     35  C   UNL     1      -2.430 -11.615 -50.563  0.00  0.00    +0.005 A 
ENDBRANCH  26  33
ENDBRANCH  24  26
ENDBRANCH   1  24
TORSDOF 4
ENDMDL
MODEL 3
REMARK VINA RESULT:   -11.279      1.947      8.098
REMARK INTER + INTRA:         -14.453
REMARK INTER:                 -14.009
REMARK INTRA:                  -0.444
REMARK UNBOUND:                -0.537
REMARK  Name = CHEMBL4435994
REMARK  5 active torsions:
REMARK  status: ('A' for Active; 'I' for Inactive)
REMARK    1  A    between atoms: C_1  and  C_2
REMARK    2  A    between atoms: C_5  and  S_6
REMARK    3  A    between atoms: S_6  and  N_9
REMARK    4  A    between atoms: N_9  and  C_10
REMARK    5  A    between atoms: C_15  and  C_16
REMARK                            x       y       z     vdW  Elec       q    Type
REMARK                         _______ _______ _______ _____ _____    ______ ____
ROOT
ATOM      1  C   UNL     1      -8.235 -14.308 -53.210  0.00  0.00    +0.060 A 
ATOM      2  C   UNL     1      -9.634 -14.282 -53.174  0.00  0.00    +0.025 A 
ATOM      3  C   UNL     1     -10.308 -13.651 -52.127  0.00  0.00    +0.002 A 
ATOM      4  C   UNL     1      -9.588 -13.041 -51.104  0.00  0.00    +0.001 A 
ATOM      5  C   UNL     1      -8.193 -13.091 -51.106  0.00  0.00    +0.015 A 
ATOM      6  C   UNL     1      -7.503 -13.755 -52.136  0.00  0.00    +0.059 A 
ENDROOT
BRANCH   6   7
ATOM      7  C   UNL     1      -6.007 -13.858 -52.105  0.00  0.00    +0.252 C 
ATOM      8  O   UNL     1      -5.442 -14.362 -53.071  0.00  0.00    -0.270 OA
ATOM      9  N   UNL     1      -5.406 -13.426 -50.944  0.00  0.00    -0.261 N 
ATOM     10  C   UNL     1      -4.060 -13.370 -50.681  0.00  0.00    +0.166 A 
ATOM     11  N   UNL     1      -3.633 -13.021 -49.492  0.00  0.00    -0.224 NA
ATOM     12  C   UNL     1      -2.239 -13.022 -49.471  0.00  0.00    +0.088 A 
ATOM     13  C   UNL     1      -1.638 -13.370 -50.683  0.00  0.00    +0.041 A 
ATOM     14  C   UNL     1      -0.245 -13.422 -50.841  0.00  0.00    +0.018 A 
ATOM     15  C   UNL     1       0.562 -13.112 -49.741  0.00  0.00    +0.010 A 
ATOM     16  C   UNL     1       0.008 -12.757 -48.507  0.00  0.00    -0.016 A 
ATOM     17  C   UNL     1       0.812 -12.444 -47.401  0.00  0.00    +0.008 A 
ATOM     18  C   UNL     1       0.237 -12.092 -46.176  0.00  0.00    +0.001 A 
ATOM     19  C   UNL     1      -1.148 -12.047 -46.037  0.00  0.00    +0.001 A 
ATOM     20  C   UNL     1      -1.968 -12.353 -47.122  0.00  0.00    +0.010 A 
ATOM     21  C   UNL     1      -1.400 -12.708 -48.361  0.00  0.00    +0.009 A 
ATOM     22  S   UNL     1      -2.867 -13.693 -51.844  0.00  0.00    -0.052 S 
ATOM     23  H   UNL     1      -5.959 -13.198 -50.131  0.00  0.00    +0.157 HD
ENDBRANCH   6   7
BRANCH   1  24
ATOM     24  N   UNL     1      -7.574 -14.922 -54.332  0.00  0.00    -0.216 N 
ATOM     25  H   UNL     1      -6.591 -15.176 -54.149  0.00  0.00    +0.174 HD
BRANCH  24  26
ATOM     26  S   UNL     1      -7.624 -14.128 -55.835  0.00  0.00    +0.072 S 
ATOM     27  O   UNL     1      -8.817 -14.589 -56.513  0.00  0.00    -0.150 OA
ATOM     28  O   UNL     1      -7.388 -12.713 -55.634  0.00  0.00    -0.150 OA
BRANCH  26  33
ATOM     29  C   UNL     1      -2.846 -16.421 -58.804  0.00  0.00    +0.044 C 
ATOM     30  C   UNL     1      -4.014 -15.828 -58.072  0.00  0.00    -0.050 A 
ATOM     31  C   UNL     1      -5.177 -15.473 -58.767  0.00  0.00    +0.005 A 
ATOM     32  C   UNL     1      -6.277 -14.948 -58.086  0.00  0.00    +0.029 A 
ATOM     33  C   UNL     1      -6.221 -14.800 -56.699  0.00  0.00    +0.109 A 
ATOM     34  C   UNL     1      -5.067 -15.147 -55.992  0.00  0.00    +0.029 A 
ATOM     35  C   UNL     1      -3.971 -15.670 -56.679  0.00  0.00    +0.005 A 
ENDBRANCH  26  33
ENDBRANCH  24  26
ENDBRANCH   1  24
TORSDOF 4
ENDMDL
