MODEL 1
REMARK VINA RESULT:   -12.770      0.000      0.000
REMARK INTER + INTRA:         -15.866
REMARK INTER:                 -15.757
REMARK INTRA:                  -0.110
REMARK UNBOUND:                -0.110
REMARK  Name = CHEMBL4435994
REMARK  5 active torsions:
REMARK  status: ('A' for Active; 'I' for Inactive)
REMARK    1  A    between atoms: C_1  and  C_2
REMARK    2  A    between atoms: C_5  and  S_6
REMARK    3  A    between atoms: S_6  and  N_9
REMARK    4  A    between atoms: N_9  and  C_10
REMARK    5  A    between atoms: C_15  and  C_16
REMARK                            x       y       z     vdW  Elec       q    Type
REMARK                         _______ _______ _______ _____ _____    ______ ____
ROOT
ATOM      1  C   UNL     1      -7.267 -13.937 -53.018  0.00  0.00    +0.060 A 
ATOM      2  C   UNL     1      -7.954 -13.813 -51.805  0.00  0.00    +0.025 A 
ATOM      3  C   UNL     1      -9.287 -14.216 -51.697  0.00  0.00    +0.002 A 
ATOM      4  C   UNL     1      -9.946 -14.744 -52.803  0.00  0.00    +0.001 A 
ATOM      5  C   UNL     1      -9.286 -14.838 -54.029  0.00  0.00    +0.015 A 
ATOM      6  C   UNL     1      -7.955 -14.403 -54.160  0.00  0.00    +0.059 A 
ENDROOT
BRANCH   6   7
ATOM      7  C   UNL     1      -7.268 -14.451 -55.493  0.00  0.00    +0.252 C 
ATOM      8  O   UNL     1      -7.678 -13.711 -56.382  0.00  0.00    -0.270 OA
ATOM      9  N   UNL     1      -6.263 -15.384 -55.610  0.00  0.00    -0.261 N 
ATOM     10  C   UNL     1      -5.453 -15.596 -56.698  0.00  0.00    +0.166 A 
ATOM     11  N   UNL     1      -4.595 -16.586 -56.701  0.00  0.00    -0.224 NA
ATOM     12  C   UNL     1      -3.880 -16.590 -57.898  0.00  0.00    +0.088 A 
ATOM     13  C   UNL     1      -4.222 -15.565 -58.784  0.00  0.00    +0.041 A 
ATOM     14  C   UNL     1      -3.603 -15.418 -60.034  0.00  0.00    +0.018 A 
ATOM     15  C   UNL     1      -2.610 -16.334 -60.397  0.00  0.00    +0.010 A 
ATOM     16  C   UNL     1      -2.233 -17.376 -59.545  0.00  0.00    -0.016 A 
ATOM     17  C   UNL     1      -1.236 -18.298 -59.904  0.00  0.00    +0.008 A 
ATOM     18  C   UNL     1      -0.874 -19.333 -59.036  0.00  0.00    +0.001 A 
ATOM     19  C   UNL     1      -1.501 -19.465 -57.799  0.00  0.00    +0.001 A 
ATOM     20  C   UNL     1      -2.493 -18.561 -57.420  0.00  0.00    +0.010 A 
ATOM     21  C   UNL     1      -2.865 -17.514 -58.285  0.00  0.00    +0.009 A 
ATOM     22  S   UNL     1      -5.459 -14.602 -58.073  0.00  0.00    -0.052 S 
ATOM     23  H   UNL     1      -6.114 -16.075 -54.890  0.00  0.00    +0.157 HD
ENDBRANCH   6   7
BRANCH   1  24
ATOM     24  N   UNL     1      -5.879 -13.561 -53.079  0.00  0.00    -0.216 N 
ATOM     25  H   UNL     1      -5.253 -14.190 -52.553  0.00  0.00    +0.174 HD
BRANCH  24  26
ATOM     26  S   UNL     1      -5.454 -11.964 -52.674  0.00  0.00    +0.072 S 
ATOM     27  O   UNL     1      -5.145 -11.287 -53.915  0.00  0.00    -0.150 OA
ATOM     28  O   UNL     1      -6.443 -11.425 -51.763  0.00  0.00    -0.150 OA
BRANCH  26  33
ATOM     29  C   UNL     1      -0.256 -12.617 -49.600  0.00  0.00    +0.044 C 
ATOM     30  C   UNL     1      -1.554 -12.469 -50.338  0.00  0.00    -0.050 A 
ATOM     31  C   UNL     1      -2.269 -11.265 -50.275  0.00  0.00    +0.005 A 
ATOM     32  C   UNL     1      -3.462 -11.113 -50.983  0.00  0.00    +0.029 A 
ATOM     33  C   UNL     1      -3.931 -12.162 -51.776  0.00  0.00    +0.109 A 
ATOM     34  C   UNL     1      -3.231 -13.369 -51.846  0.00  0.00    +0.029 A 
ATOM     35  C   UNL     1      -2.039 -13.515 -51.135  0.00  0.00    +0.005 A 
ENDBRANCH  26  33
ENDBRANCH  24  26
ENDBRANCH   1  24
TORSDOF 4
ENDMDL
MODEL 2
REMARK VINA RESULT:   -12.490      2.042      8.294
REMARK INTER + INTRA:         -15.521
REMARK INTER:                 -14.998
REMARK INTRA:                  -0.523
REMARK UNBOUND:                -0.110
REMARK  Name = CHEMBL4435994
REMARK  5 active torsions:
REMARK  status: ('A' for Active; 'I' for Inactive)
REMARK    1  A    between atoms: C_1  and  C_2
REMARK    2  A    between atoms: C_5  and  S_6
REMARK    3  A    between atoms: S_6  and  N_9
REMARK    4  A    between atoms: N_9  and  C_10
REMARK    5  A    between atoms: C_15  and  C_16
REMARK                            x       y       z     vdW  Elec       q    Type
REMARK                         _______ _______ _______ _____ _____    ______ ____
ROOT
ATOM      1  C   UNL     1      -7.903 -14.424 -53.240  0.00  0.00    +0.060 A 
ATOM      2  C   UNL     1      -9.301 -14.471 -53.250  0.00  0.00    +0.025 A 
ATOM      3  C   UNL     1     -10.040 -13.923 -52.200  0.00  0.00    +0.002 A 
ATOM      4  C   UNL     1      -9.386 -13.324 -51.128  0.00  0.00    +0.001 A 
ATOM      5  C   UNL     1      -7.991 -13.303 -51.085  0.00  0.00    +0.015 A 
ATOM      6  C   UNL     1      -7.235 -13.883 -52.119  0.00  0.00    +0.059 A 
ENDROOT
BRANCH   6   7
ATOM      7  C   UNL     1      -5.737 -13.912 -52.042  0.00  0.00    +0.252 C 
ATOM      8  O   UNL     1      -5.119 -14.407 -52.979  0.00  0.00    -0.270 OA
ATOM      9  N   UNL     1      -5.193 -13.426 -50.875  0.00  0.00    -0.261 N 
ATOM     10  C   UNL     1      -3.860 -13.297 -50.574  0.00  0.00    +0.166 A 
ATOM     11  N   UNL     1      -3.487 -12.902 -49.382  0.00  0.00    -0.224 NA
ATOM     12  C   UNL     1      -2.095 -12.834 -49.320  0.00  0.00    +0.088 A 
ATOM     13  C   UNL     1      -1.442 -13.178 -50.506  0.00  0.00    +0.041 A 
ATOM     14  C   UNL     1      -0.044 -13.164 -50.623  0.00  0.00    +0.018 A 
ATOM     15  C   UNL     1       0.713 -12.791 -49.508  0.00  0.00    +0.010 A 
ATOM     16  C   UNL     1       0.106 -12.437 -48.299  0.00  0.00    -0.016 A 
ATOM     17  C   UNL     1       0.861 -12.061 -47.177  0.00  0.00    +0.008 A 
ATOM     18  C   UNL     1       0.233 -11.712 -45.977  0.00  0.00    +0.001 A 
ATOM     19  C   UNL     1      -1.157 -11.733 -45.879  0.00  0.00    +0.001 A 
ATOM     20  C   UNL     1      -1.928 -12.102 -46.980  0.00  0.00    +0.010 A 
ATOM     21  C   UNL     1      -1.306 -12.455 -48.194  0.00  0.00    +0.009 A 
ATOM     22  S   UNL     1      -2.618 -13.586 -51.694  0.00  0.00    -0.052 S 
ATOM     23  H   UNL     1      -5.780 -13.208 -50.084  0.00  0.00    +0.157 HD
ENDBRANCH   6   7
BRANCH   1  24
ATOM     24  N   UNL     1      -7.176 -14.952 -54.365  0.00  0.00    -0.216 N 
ATOM     25  H   UNL     1      -6.174 -15.110 -54.177  0.00  0.00    +0.174 HD
BRANCH  24  26
ATOM     26  S   UNL     1      -7.293 -14.144 -55.857  0.00  0.00    +0.072 S 
ATOM     27  O   UNL     1      -8.502 -14.620 -56.497  0.00  0.00    -0.150 OA
ATOM     28  O   UNL     1      -7.075 -12.727 -55.649  0.00  0.00    -0.150 OA
BRANCH  26  33
ATOM     29  C   UNL     1      -2.562 -16.329 -58.978  0.00  0.00    +0.044 C 
ATOM     30  C   UNL     1      -3.744 -15.815 -58.209  0.00  0.00    -0.050 A 
ATOM     31  C   UNL     1      -3.711 -15.772 -56.809  0.00  0.00    +0.005 A 
ATOM     32  C   UNL     1      -4.797 -15.269 -56.090  0.00  0.00    +0.029 A 
ATOM     33  C   UNL     1      -5.911 -14.782 -56.777  0.00  0.00    +0.109 A 
ATOM     34  C   UNL     1      -5.959 -14.821 -58.173  0.00  0.00    +0.029 A 
ATOM     35  C   UNL     1      -4.871 -15.327 -58.885  0.00  0.00    +0.005 A 
ENDBRANCH  26  33
ENDBRANCH  24  26
ENDBRANCH   1  24
TORSDOF 4
ENDMDL
MODEL 3
REMARK VINA RESULT:   -11.204      3.990     10.180
REMARK INTER + INTRA:         -13.933
REMARK INTER:                 -13.990
REMARK INTRA:                   0.057
REMARK UNBOUND:                -0.110
REMARK  Name = CHEMBL4435994
REMARK  5 active torsions:
REMARK  status: ('A' for Active; 'I' for Inactive)
REMARK    1  A    between atoms: C_1  and  C_2
REMARK    2  A    between atoms: C_5  and  S_6
REMARK    3  A    between atoms: S_6  and  N_9
REMARK    4  A    between atoms: N_9  and  C_10
REMARK    5  A    between atoms: C_15  and  C_16
REMARK                            x       y       z     vdW  Elec       q    Type
REMARK                         _______ _______ _______ _____ _____    ______ ____
ROOT
ATOM      1  C   UNL     1      -1.330 -18.193 -59.870  0.00  0.00    +0.060 A 
ATOM      2  C   UNL     1      -0.346 -19.181 -59.986  0.00  0.00    +0.025 A 
ATOM      3  C   UNL     1      -0.202 -20.162 -59.003  0.00  0.00    +0.002 A 
ATOM      4  C   UNL     1      -1.040 -20.162 -57.893  0.00  0.00    +0.001 A 
ATOM      5  C   UNL     1      -2.001 -19.161 -57.743  0.00  0.00    +0.015 A 
ATOM      6  C   UNL     1      -2.133 -18.147 -58.709  0.00  0.00    +0.059 A 
ENDROOT
BRANCH   6   7
ATOM      7  C   UNL     1      -3.126 -17.039 -58.516  0.00  0.00    +0.252 C 
ATOM      8  O   UNL     1      -3.259 -16.219 -59.419  0.00  0.00    -0.270 OA
ATOM      9  N   UNL     1      -3.759 -17.015 -57.295  0.00  0.00    -0.261 N 
ATOM     10  C   UNL     1      -4.738 -16.142 -56.888  0.00  0.00    +0.166 A 
ATOM     11  N   UNL     1      -5.188 -16.181 -55.657  0.00  0.00    -0.224 NA
ATOM     12  C   UNL     1      -6.180 -15.217 -55.486  0.00  0.00    +0.088 A 
ATOM     13  C   UNL     1      -6.466 -14.466 -56.628  0.00  0.00    +0.041 A 
ATOM     14  C   UNL     1      -7.438 -13.453 -56.636  0.00  0.00    +0.018 A 
ATOM     15  C   UNL     1      -8.139 -13.195 -55.453  0.00  0.00    +0.010 A 
ATOM     16  C   UNL     1      -7.889 -13.920 -54.284  0.00  0.00    -0.016 A 
ATOM     17  C   UNL     1      -8.590 -13.666 -53.095  0.00  0.00    +0.008 A 
ATOM     18  C   UNL     1      -8.323 -14.402 -51.936  0.00  0.00    +0.001 A 
ATOM     19  C   UNL     1      -7.355 -15.403 -51.947  0.00  0.00    +0.001 A 
ATOM     20  C   UNL     1      -6.646 -15.675 -53.117  0.00  0.00    +0.010 A 
ATOM     21  C   UNL     1      -6.906 -14.939 -54.289  0.00  0.00    +0.009 A 
ATOM     22  S   UNL     1      -5.460 -15.003 -57.917  0.00  0.00    -0.052 S 
ATOM     23  H   UNL     1      -3.457 -17.618 -56.545  0.00  0.00    +0.157 HD
ENDBRANCH   6   7
BRANCH   1  24
ATOM     24  N   UNL     1      -1.484 -17.230 -60.928  0.00  0.00    -0.216 N 
ATOM     25  H   UNL     1      -2.324 -16.638 -60.835  0.00  0.00    +0.174 HD
BRANCH  24  26
ATOM     26  S   UNL     1      -1.421 -17.777 -62.537  0.00  0.00    +0.072 S 
ATOM     27  O   UNL     1      -1.542 -19.219 -62.494  0.00  0.00    -0.150 OA
ATOM     28  O   UNL     1      -2.325 -16.983 -63.345  0.00  0.00    -0.150 OA
BRANCH  26  33
ATOM     29  C   UNL     1       4.254 -16.468 -64.261  0.00  0.00    +0.044 C 
ATOM     30  C   UNL     1       2.844 -16.764 -63.842  0.00  0.00    -0.050 A 
ATOM     31  C   UNL     1       1.956 -17.378 -64.734  0.00  0.00    +0.005 A 
ATOM     32  C   UNL     1       0.652 -17.681 -64.339  0.00  0.00    +0.029 A 
ATOM     33  C   UNL     1       0.242 -17.391 -63.036  0.00  0.00    +0.109 A 
ATOM     34  C   UNL     1       1.116 -16.776 -62.136  0.00  0.00    +0.029 A 
ATOM     35  C   UNL     1       2.418 -16.475 -62.538  0.00  0.00    +0.005 A 
ENDBRANCH  26  33
ENDBRANCH  24  26
ENDBRANCH   1  24
TORSDOF 4
ENDMDL
