MODEL 1
REMARK VINA RESULT:   -11.745      0.000      0.000
REMARK INTER + INTRA:         -14.576
REMARK INTER:                 -14.491
REMARK INTRA:                  -0.085
REMARK UNBOUND:                -0.085
REMARK  Name = CHEMBL4435994
REMARK  5 active torsions:
REMARK  status: ('A' for Active; 'I' for Inactive)
REMARK    1  A    between atoms: C_1  and  C_2
REMARK    2  A    between atoms: C_5  and  S_6
REMARK    3  A    between atoms: S_6  and  N_9
REMARK    4  A    between atoms: N_9  and  C_10
REMARK    5  A    between atoms: C_15  and  C_16
REMARK                            x       y       z     vdW  Elec       q    Type
REMARK                         _______ _______ _______ _____ _____    ______ ____
ROOT
ATOM      1  C   UNL     1      18.706   4.329  -9.285  0.00  0.00    +0.060 A 
ATOM      2  C   UNL     1      18.463   3.544  -8.153  0.00  0.00    +0.025 A 
ATOM      3  C   UNL     1      19.358   3.543  -7.082  0.00  0.00    +0.002 A 
ATOM      4  C   UNL     1      20.506   4.326  -7.134  0.00  0.00    +0.001 A 
ATOM      5  C   UNL     1      20.782   5.086  -8.272  0.00  0.00    +0.015 A 
ATOM      6  C   UNL     1      19.906   5.068  -9.373  0.00  0.00    +0.059 A 
ENDROOT
BRANCH   6   7
ATOM      7  C   UNL     1      20.234   5.838 -10.617  0.00  0.00    +0.252 C 
ATOM      8  O   UNL     1      19.849   5.391 -11.693  0.00  0.00    -0.270 OA
ATOM      9  N   UNL     1      21.006   6.963 -10.433  0.00  0.00    -0.261 N 
ATOM     10  C   UNL     1      21.401   7.861 -11.394  0.00  0.00    +0.166 A 
ATOM     11  N   UNL     1      22.215   8.842 -11.087  0.00  0.00    -0.224 NA
ATOM     12  C   UNL     1      22.459   9.625 -12.214  0.00  0.00    +0.088 A 
ATOM     13  C   UNL     1      21.793   9.207 -13.369  0.00  0.00    +0.041 A 
ATOM     14  C   UNL     1      21.923   9.879 -14.594  0.00  0.00    +0.018 A 
ATOM     15  C   UNL     1      22.750  11.006 -14.650  0.00  0.00    +0.010 A 
ATOM     16  C   UNL     1      23.437  11.463 -13.521  0.00  0.00    -0.016 A 
ATOM     17  C   UNL     1      24.268  12.594 -13.572  0.00  0.00    +0.008 A 
ATOM     18  C   UNL     1      24.946  13.034 -12.431  0.00  0.00    +0.001 A 
ATOM     19  C   UNL     1      24.806  12.354 -11.224  0.00  0.00    +0.001 A 
ATOM     20  C   UNL     1      23.986  11.228 -11.148  0.00  0.00    +0.010 A 
ATOM     21  C   UNL     1      23.298  10.776 -12.291  0.00  0.00    +0.009 A 
ATOM     22  S   UNL     1      20.856   7.811 -13.000  0.00  0.00    -0.052 S 
ATOM     23  H   UNL     1      21.431   7.157  -9.539  0.00  0.00    +0.157 HD
ENDBRANCH   6   7
BRANCH   1  24
ATOM     24  N   UNL     1      17.735   4.346 -10.348  0.00  0.00    -0.216 N 
ATOM     25  H   UNL     1      16.827   4.757 -10.078  0.00  0.00    +0.174 HD
BRANCH  24  26
ATOM     26  S   UNL     1      17.411   2.894 -11.172  0.00  0.00    +0.072 S 
ATOM     27  O   UNL     1      17.589   1.822 -10.216  0.00  0.00    -0.150 OA
ATOM     28  O   UNL     1      16.171   3.031 -11.908  0.00  0.00    -0.150 OA
BRANCH  26  33
ATOM     29  C   UNL     1      21.959   2.524 -15.182  0.00  0.00    +0.044 C 
ATOM     30  C   UNL     1      20.825   2.590 -14.202  0.00  0.00    -0.050 A 
ATOM     31  C   UNL     1      20.995   2.123 -12.892  0.00  0.00    +0.005 A 
ATOM     32  C   UNL     1      19.951   2.209 -11.969  0.00  0.00    +0.029 A 
ATOM     33  C   UNL     1      18.739   2.788 -12.351  0.00  0.00    +0.109 A 
ATOM     34  C   UNL     1      18.554   3.256 -13.655  0.00  0.00    +0.029 A 
ATOM     35  C   UNL     1      19.601   3.166 -14.573  0.00  0.00    +0.005 A 
ENDBRANCH  26  33
ENDBRANCH  24  26
ENDBRANCH   1  24
TORSDOF 4
ENDMDL
MODEL 2
REMARK VINA RESULT:   -11.510      1.497      2.214
REMARK INTER + INTRA:         -14.286
REMARK INTER:                 -13.320
REMARK INTRA:                  -0.967
REMARK UNBOUND:                -0.085
REMARK  Name = CHEMBL4435994
REMARK  5 active torsions:
REMARK  status: ('A' for Active; 'I' for Inactive)
REMARK    1  A    between atoms: C_1  and  C_2
REMARK    2  A    between atoms: C_5  and  S_6
REMARK    3  A    between atoms: S_6  and  N_9
REMARK    4  A    between atoms: N_9  and  C_10
REMARK    5  A    between atoms: C_15  and  C_16
REMARK                            x       y       z     vdW  Elec       q    Type
REMARK                         _______ _______ _______ _____ _____    ______ ____
ROOT
ATOM      1  C   UNL     1      18.855   4.328  -9.630  0.00  0.00    +0.060 A 
ATOM      2  C   UNL     1      18.476   3.585  -8.507  0.00  0.00    +0.025 A 
ATOM      3  C   UNL     1      19.258   3.593  -7.350  0.00  0.00    +0.002 A 
ATOM      4  C   UNL     1      20.429   4.344  -7.308  0.00  0.00    +0.001 A 
ATOM      5  C   UNL     1      20.840   5.060  -8.434  0.00  0.00    +0.015 A 
ATOM      6  C   UNL     1      20.080   5.031  -9.617  0.00  0.00    +0.059 A 
ENDROOT
BRANCH   6   7
ATOM      7  C   UNL     1      20.554   5.753 -10.843  0.00  0.00    +0.252 C 
ATOM      8  O   UNL     1      20.409   5.202 -11.930  0.00  0.00    -0.270 OA
ATOM      9  N   UNL     1      21.175   6.960 -10.618  0.00  0.00    -0.261 N 
ATOM     10  C   UNL     1      21.653   7.833 -11.564  0.00  0.00    +0.166 A 
ATOM     11  N   UNL     1      22.307   8.909 -11.199  0.00  0.00    -0.224 NA
ATOM     12  C   UNL     1      22.677   9.642 -12.326  0.00  0.00    +0.088 A 
ATOM     13  C   UNL     1      22.269   9.088 -13.542  0.00  0.00    +0.041 A 
ATOM     14  C   UNL     1      22.554   9.693 -14.775  0.00  0.00    +0.018 A 
ATOM     15  C   UNL     1      23.273  10.893 -14.777  0.00  0.00    +0.010 A 
ATOM     16  C   UNL     1      23.703  11.488 -13.586  0.00  0.00    -0.016 A 
ATOM     17  C   UNL     1      24.423  12.692 -13.582  0.00  0.00    +0.008 A 
ATOM     18  C   UNL     1      24.844  13.269 -12.380  0.00  0.00    +0.001 A 
ATOM     19  C   UNL     1      24.553  12.654 -11.165  0.00  0.00    +0.001 A 
ATOM     20  C   UNL     1      23.837  11.457 -11.143  0.00  0.00    +0.010 A 
ATOM     21  C   UNL     1      23.408  10.867 -12.348  0.00  0.00    +0.009 A 
ATOM     22  S   UNL     1      21.411   7.629 -13.231  0.00  0.00    -0.052 S 
ATOM     23  H   UNL     1      21.415   7.251  -9.682  0.00  0.00    +0.157 HD
ENDBRANCH   6   7
BRANCH   1  24
ATOM     24  N   UNL     1      17.997   4.337 -10.786  0.00  0.00    -0.216 N 
ATOM     25  H   UNL     1      17.091   4.806 -10.630  0.00  0.00    +0.174 HD
BRANCH  24  26
ATOM     26  S   UNL     1      17.677   2.861 -11.569  0.00  0.00    +0.072 S 
ATOM     27  O   UNL     1      18.958   2.231 -11.812  0.00  0.00    -0.150 OA
ATOM     28  O   UNL     1      16.631   2.160 -10.854  0.00  0.00    -0.150 OA
BRANCH  26  33
ATOM     29  C   UNL     1      15.412   4.584 -16.936  0.00  0.00    +0.044 C 
ATOM     30  C   UNL     1      15.969   4.186 -15.600  0.00  0.00    -0.050 A 
ATOM     31  C   UNL     1      15.139   3.599 -14.636  0.00  0.00    +0.005 A 
ATOM     32  C   UNL     1      15.658   3.201 -13.403  0.00  0.00    +0.029 A 
ATOM     33  C   UNL     1      17.020   3.368 -13.143  0.00  0.00    +0.109 A 
ATOM     34  C   UNL     1      17.859   3.954 -14.094  0.00  0.00    +0.029 A 
ATOM     35  C   UNL     1      17.333   4.351 -15.324  0.00  0.00    +0.005 A 
ENDBRANCH  26  33
ENDBRANCH  24  26
ENDBRANCH   1  24
TORSDOF 4
ENDMDL
MODEL 3
REMARK VINA RESULT:   -11.250      3.146      8.995
REMARK INTER + INTRA:         -13.966
REMARK INTER:                 -13.803
REMARK INTRA:                  -0.163
REMARK UNBOUND:                -0.085
REMARK  Name = CHEMBL4435994
REMARK  5 active torsions:
REMARK  status: ('A' for Active; 'I' for Inactive)
REMARK    1  A    between atoms: C_1  and  C_2
REMARK    2  A    between atoms: C_5  and  S_6
REMARK    3  A    between atoms: S_6  and  N_9
REMARK    4  A    between atoms: N_9  and  C_10
REMARK    5  A    between atoms: C_15  and  C_16
REMARK                            x       y       z     vdW  Elec       q    Type
REMARK                         _______ _______ _______ _____ _____    ______ ____
ROOT
ATOM      1  C   UNL     1      22.779  10.699 -13.379  0.00  0.00    +0.060 A 
ATOM      2  C   UNL     1      23.512  11.882 -13.240  0.00  0.00    +0.025 A 
ATOM      3  C   UNL     1      24.192  12.165 -12.053  0.00  0.00    +0.002 A 
ATOM      4  C   UNL     1      24.141  11.266 -10.993  0.00  0.00    +0.001 A 
ATOM      5  C   UNL     1      23.383  10.099 -11.101  0.00  0.00    +0.015 A 
ATOM      6  C   UNL     1      22.665   9.820 -12.279  0.00  0.00    +0.059 A 
ENDROOT
BRANCH   6   7
ATOM      7  C   UNL     1      21.804   8.596 -12.371  0.00  0.00    +0.252 C 
ATOM      8  O   UNL     1      21.256   8.354 -13.443  0.00  0.00    -0.270 OA
ATOM      9  N   UNL     1      21.659   7.882 -11.203  0.00  0.00    -0.261 N 
ATOM     10  C   UNL     1      20.969   6.707 -11.033  0.00  0.00    +0.166 A 
ATOM     11  N   UNL     1      20.839   6.185  -9.837  0.00  0.00    -0.224 NA
ATOM     12  C   UNL     1      20.118   4.995  -9.917  0.00  0.00    +0.088 A 
ATOM     13  C   UNL     1      19.724   4.637 -11.209  0.00  0.00    +0.041 A 
ATOM     14  C   UNL     1      18.992   3.470 -11.473  0.00  0.00    +0.018 A 
ATOM     15  C   UNL     1      18.649   2.642 -10.399  0.00  0.00    +0.010 A 
ATOM     16  C   UNL     1      19.021   2.956  -9.088  0.00  0.00    -0.016 A 
ATOM     17  C   UNL     1      18.680   2.128  -8.007  0.00  0.00    +0.008 A 
ATOM     18  C   UNL     1      19.062   2.462  -6.704  0.00  0.00    +0.001 A 
ATOM     19  C   UNL     1      19.787   3.626  -6.460  0.00  0.00    +0.001 A 
ATOM     20  C   UNL     1      20.138   4.464  -7.518  0.00  0.00    +0.010 A 
ATOM     21  C   UNL     1      19.760   4.138  -8.835  0.00  0.00    +0.009 A 
ATOM     22  S   UNL     1      20.284   5.831 -12.314  0.00  0.00    -0.052 S 
ATOM     23  H   UNL     1      21.995   8.252 -10.327  0.00  0.00    +0.157 HD
ENDBRANCH   6   7
BRANCH   1  24
ATOM     24  N   UNL     1      22.136  10.416 -14.635  0.00  0.00    -0.216 N 
ATOM     25  H   UNL     1      21.364   9.735 -14.565  0.00  0.00    +0.174 HD
BRANCH  24  26
ATOM     26  S   UNL     1      23.104   9.954 -15.955  0.00  0.00    +0.072 S 
ATOM     27  O   UNL     1      24.364  10.651 -15.814  0.00  0.00    -0.150 OA
ATOM     28  O   UNL     1      23.066   8.512 -16.090  0.00  0.00    -0.150 OA
BRANCH  26  33
ATOM     29  C   UNL     1      20.187  12.339 -20.720  0.00  0.00    +0.044 C 
ATOM     30  C   UNL     1      20.893  11.768 -19.525  0.00  0.00    -0.050 A 
ATOM     31  C   UNL     1      20.430  10.587 -18.929  0.00  0.00    +0.005 A 
ATOM     32  C   UNL     1      21.101  10.037 -17.835  0.00  0.00    +0.029 A 
ATOM     33  C   UNL     1      22.254  10.657 -17.351  0.00  0.00    +0.109 A 
ATOM     34  C   UNL     1      22.726  11.836 -17.934  0.00  0.00    +0.029 A 
ATOM     35  C   UNL     1      22.050  12.382 -19.026  0.00  0.00    +0.005 A 
ENDBRANCH  26  33
ENDBRANCH  24  26
ENDBRANCH   1  24
TORSDOF 4
ENDMDL
