MODEL 1
REMARK VINA RESULT:   -12.989      0.000      0.000
REMARK INTER + INTRA:         -16.479
REMARK INTER:                 -16.026
REMARK INTRA:                  -0.453
REMARK UNBOUND:                -0.453
REMARK  Name = CHEMBL4435994
REMARK  5 active torsions:
REMARK  status: ('A' for Active; 'I' for Inactive)
REMARK    1  A    between atoms: C_1  and  C_2
REMARK    2  A    between atoms: C_5  and  S_6
REMARK    3  A    between atoms: S_6  and  N_9
REMARK    4  A    between atoms: N_9  and  C_10
REMARK    5  A    between atoms: C_15  and  C_16
REMARK                            x       y       z     vdW  Elec       q    Type
REMARK                         _______ _______ _______ _____ _____    ______ ____
ROOT
ATOM      1  C   UNL     1     -33.236   4.295   9.844  0.00  0.00    +0.060 A 
ATOM      2  C   UNL     1     -33.254   2.999  10.369  0.00  0.00    +0.025 A 
ATOM      3  C   UNL     1     -32.127   2.179  10.284  0.00  0.00    +0.002 A 
ATOM      4  C   UNL     1     -30.971   2.648   9.669  0.00  0.00    +0.001 A 
ATOM      5  C   UNL     1     -30.949   3.925   9.106  0.00  0.00    +0.015 A 
ATOM      6  C   UNL     1     -32.089   4.748   9.154  0.00  0.00    +0.059 A 
ENDROOT
BRANCH   6   7
ATOM      7  C   UNL     1     -32.082   6.096   8.496  0.00  0.00    +0.252 C 
ATOM      8  O   UNL     1     -33.161   6.600   8.199  0.00  0.00    -0.270 OA
ATOM      9  N   UNL     1     -30.837   6.619   8.228  0.00  0.00    -0.261 N 
ATOM     10  C   UNL     1     -30.557   7.846   7.680  0.00  0.00    +0.166 A 
ATOM     11  N   UNL     1     -29.321   8.176   7.396  0.00  0.00    -0.224 NA
ATOM     12  C   UNL     1     -29.284   9.465   6.867  0.00  0.00    +0.088 A 
ATOM     13  C   UNL     1     -30.529  10.093   6.778  0.00  0.00    +0.041 A 
ATOM     14  C   UNL     1     -30.678  11.393   6.270  0.00  0.00    +0.018 A 
ATOM     15  C   UNL     1     -29.534  12.076   5.843  0.00  0.00    +0.010 A 
ATOM     16  C   UNL     1     -28.266  11.490   5.913  0.00  0.00    -0.016 A 
ATOM     17  C   UNL     1     -27.115  12.171   5.486  0.00  0.00    +0.008 A 
ATOM     18  C   UNL     1     -25.857  11.566   5.565  0.00  0.00    +0.001 A 
ATOM     19  C   UNL     1     -25.728  10.274   6.070  0.00  0.00    +0.001 A 
ATOM     20  C   UNL     1     -26.857   9.578   6.501  0.00  0.00    +0.010 A 
ATOM     21  C   UNL     1     -28.130  10.177   6.427  0.00  0.00    +0.009 A 
ATOM     22  S   UNL     1     -31.739   9.024   7.374  0.00  0.00    -0.052 S 
ATOM     23  H   UNL     1     -30.007   6.057   8.339  0.00  0.00    +0.157 HD
ENDBRANCH   6   7
BRANCH   1  24
ATOM     24  N   UNL     1     -34.398   5.130   9.997  0.00  0.00    -0.216 N 
ATOM     25  H   UNL     1     -34.774   5.151  10.957  0.00  0.00    +0.174 HD
BRANCH  24  26
ATOM     26  S   UNL     1     -35.711   4.891   8.942  0.00  0.00    +0.072 S 
ATOM     27  O   UNL     1     -36.397   6.162   8.834  0.00  0.00    -0.150 OA
ATOM     28  O   UNL     1     -35.250   4.196   7.758  0.00  0.00    -0.150 OA
BRANCH  26  33
ATOM     29  C   UNL     1     -39.309   1.098  12.034  0.00  0.00    +0.044 C 
ATOM     30  C   UNL     1     -38.405   2.039  11.294  0.00  0.00    -0.050 A 
ATOM     31  C   UNL     1     -37.342   1.542  10.528  0.00  0.00    +0.005 A 
ATOM     32  C   UNL     1     -36.516   2.413   9.815  0.00  0.00    +0.029 A 
ATOM     33  C   UNL     1     -36.769   3.786   9.850  0.00  0.00    +0.109 A 
ATOM     34  C   UNL     1     -37.823   4.296  10.612  0.00  0.00    +0.029 A 
ATOM     35  C   UNL     1     -38.644   3.420  11.323  0.00  0.00    +0.005 A 
ENDBRANCH  26  33
ENDBRANCH  24  26
ENDBRANCH   1  24
TORSDOF 4
ENDMDL
MODEL 2
REMARK VINA RESULT:   -12.411      3.154      9.452
REMARK INTER + INTRA:         -15.766
REMARK INTER:                 -15.127
REMARK INTRA:                  -0.639
REMARK UNBOUND:                -0.453
REMARK  Name = CHEMBL4435994
REMARK  5 active torsions:
REMARK  status: ('A' for Active; 'I' for Inactive)
REMARK    1  A    between atoms: C_1  and  C_2
REMARK    2  A    between atoms: C_5  and  S_6
REMARK    3  A    between atoms: S_6  and  N_9
REMARK    4  A    between atoms: N_9  and  C_10
REMARK    5  A    between atoms: C_15  and  C_16
REMARK                            x       y       z     vdW  Elec       q    Type
REMARK                         _______ _______ _______ _____ _____    ______ ____
ROOT
ATOM      1  C   UNL     1     -35.921   4.986   9.974  0.00  0.00    +0.060 A 
ATOM      2  C   UNL     1     -36.927   5.957  10.026  0.00  0.00    +0.025 A 
ATOM      3  C   UNL     1     -38.189   5.648  10.539  0.00  0.00    +0.002 A 
ATOM      4  C   UNL     1     -38.456   4.364  11.001  0.00  0.00    +0.001 A 
ATOM      5  C   UNL     1     -37.475   3.374  10.921  0.00  0.00    +0.015 A 
ATOM      6  C   UNL     1     -36.212   3.663  10.374  0.00  0.00    +0.059 A 
ENDROOT
BRANCH   6   7
ATOM      7  C   UNL     1     -35.180   2.583  10.233  0.00  0.00    +0.252 C 
ATOM      8  O   UNL     1     -35.231   1.859   9.244  0.00  0.00    -0.270 OA
ATOM      9  N   UNL     1     -34.295   2.468  11.281  0.00  0.00    -0.261 N 
ATOM     10  C   UNL     1     -33.235   1.601  11.377  0.00  0.00    +0.166 A 
ATOM     11  N   UNL     1     -32.528   1.540  12.479  0.00  0.00    -0.224 NA
ATOM     12  C   UNL     1     -31.505   0.605  12.334  0.00  0.00    +0.088 A 
ATOM     13  C   UNL     1     -31.460  -0.021  11.086  0.00  0.00    +0.041 A 
ATOM     14  C   UNL     1     -30.495  -0.988  10.766  0.00  0.00    +0.018 A 
ATOM     15  C   UNL     1     -29.548  -1.329  11.738  0.00  0.00    +0.010 A 
ATOM     16  C   UNL     1     -29.551  -0.731  13.002  0.00  0.00    -0.016 A 
ATOM     17  C   UNL     1     -28.603  -1.069  13.980  0.00  0.00    +0.008 A 
ATOM     18  C   UNL     1     -28.624  -0.458  15.237  0.00  0.00    +0.001 A 
ATOM     19  C   UNL     1     -29.591   0.499  15.538  0.00  0.00    +0.001 A 
ATOM     20  C   UNL     1     -30.543   0.852  14.582  0.00  0.00    +0.010 A 
ATOM     21  C   UNL     1     -30.531   0.244  13.312  0.00  0.00    +0.009 A 
ATOM     22  S   UNL     1     -32.733   0.596  10.105  0.00  0.00    -0.052 S 
ATOM     23  H   UNL     1     -34.438   2.984  12.136  0.00  0.00    +0.157 HD
ENDBRANCH   6   7
BRANCH   1  24
ATOM     24  N   UNL     1     -34.617   5.354   9.488  0.00  0.00    -0.216 N 
ATOM     25  H   UNL     1     -34.191   6.146   9.994  0.00  0.00    +0.174 HD
BRANCH  24  26
ATOM     26  S   UNL     1     -34.426   5.651   7.824  0.00  0.00    +0.072 S 
ATOM     27  O   UNL     1     -34.359   4.360   7.174  0.00  0.00    -0.150 OA
ATOM     28  O   UNL     1     -35.396   6.641   7.404  0.00  0.00    -0.150 OA
BRANCH  26  33
ATOM     29  C   UNL     1     -28.917   8.183   7.461  0.00  0.00    +0.044 C 
ATOM     30  C   UNL     1     -30.285   7.576   7.572  0.00  0.00    -0.050 A 
ATOM     31  C   UNL     1     -31.309   7.980   6.706  0.00  0.00    +0.005 A 
ATOM     32  C   UNL     1     -32.575   7.398   6.787  0.00  0.00    +0.029 A 
ATOM     33  C   UNL     1     -32.811   6.388   7.723  0.00  0.00    +0.109 A 
ATOM     34  C   UNL     1     -31.800   5.977   8.595  0.00  0.00    +0.029 A 
ATOM     35  C   UNL     1     -30.537   6.565   8.510  0.00  0.00    +0.005 A 
ENDBRANCH  26  33
ENDBRANCH  24  26
ENDBRANCH   1  24
TORSDOF 4
ENDMDL
MODEL 3
REMARK VINA RESULT:   -12.284      4.783      9.819
REMARK INTER + INTRA:         -15.609
REMARK INTER:                 -15.111
REMARK INTRA:                  -0.498
REMARK UNBOUND:                -0.453
REMARK  Name = CHEMBL4435994
REMARK  5 active torsions:
REMARK  status: ('A' for Active; 'I' for Inactive)
REMARK    1  A    between atoms: C_1  and  C_2
REMARK    2  A    between atoms: C_5  and  S_6
REMARK    3  A    between atoms: S_6  and  N_9
REMARK    4  A    between atoms: N_9  and  C_10
REMARK    5  A    between atoms: C_15  and  C_16
REMARK                            x       y       z     vdW  Elec       q    Type
REMARK                         _______ _______ _______ _____ _____    ______ ____
ROOT
ATOM      1  C   UNL     1     -29.136  -0.127  11.995  0.00  0.00    +0.060 A 
ATOM      2  C   UNL     1     -28.674  -1.174  12.800  0.00  0.00    +0.025 A 
ATOM      3  C   UNL     1     -29.572  -2.003  13.475  0.00  0.00    +0.002 A 
ATOM      4  C   UNL     1     -30.941  -1.790  13.354  0.00  0.00    +0.001 A 
ATOM      5  C   UNL     1     -31.417  -0.726  12.586  0.00  0.00    +0.015 A 
ATOM      6  C   UNL     1     -30.522   0.138  11.929  0.00  0.00    +0.059 A 
ENDROOT
BRANCH   6   7
ATOM      7  C   UNL     1     -31.034   1.315  11.153  0.00  0.00    +0.252 C 
ATOM      8  O   UNL     1     -30.222   1.995  10.533  0.00  0.00    -0.270 OA
ATOM      9  N   UNL     1     -32.384   1.559  11.265  0.00  0.00    -0.261 N 
ATOM     10  C   UNL     1     -33.104   2.536  10.624  0.00  0.00    +0.166 A 
ATOM     11  N   UNL     1     -34.374   2.709  10.898  0.00  0.00    -0.224 NA
ATOM     12  C   UNL     1     -34.890   3.742  10.117  0.00  0.00    +0.088 A 
ATOM     13  C   UNL     1     -33.971   4.326   9.242  0.00  0.00    +0.041 A 
ATOM     14  C   UNL     1     -34.320   5.378   8.381  0.00  0.00    +0.018 A 
ATOM     15  C   UNL     1     -35.636   5.851   8.408  0.00  0.00    +0.010 A 
ATOM     16  C   UNL     1     -36.593   5.298   9.266  0.00  0.00    -0.016 A 
ATOM     17  C   UNL     1     -37.915   5.768   9.296  0.00  0.00    +0.008 A 
ATOM     18  C   UNL     1     -38.855   5.202  10.162  0.00  0.00    +0.001 A 
ATOM     19  C   UNL     1     -38.491   4.159  11.010  0.00  0.00    +0.001 A 
ATOM     20  C   UNL     1     -37.183   3.674  10.998  0.00  0.00    +0.010 A 
ATOM     21  C   UNL     1     -36.228   4.237  10.129  0.00  0.00    +0.009 A 
ATOM     22  S   UNL     1     -32.449   3.545   9.427  0.00  0.00    -0.052 S 
ATOM     23  H   UNL     1     -32.944   1.060  11.940  0.00  0.00    +0.157 HD
ENDBRANCH   6   7
BRANCH   1  24
ATOM     24  N   UNL     1     -28.184   0.674  11.271  0.00  0.00    -0.216 N 
ATOM     25  H   UNL     1     -27.601   0.135  10.612  0.00  0.00    +0.174 HD
BRANCH  24  26
ATOM     26  S   UNL     1     -27.145   1.692  12.154  0.00  0.00    +0.072 S 
ATOM     27  O   UNL     1     -27.965   2.386  13.124  0.00  0.00    -0.150 OA
ATOM     28  O   UNL     1     -25.982   0.937  12.573  0.00  0.00    -0.150 OA
BRANCH  26  33
ATOM     29  C   UNL     1     -25.325   5.770   8.037  0.00  0.00    +0.044 C 
ATOM     30  C   UNL     1     -25.763   4.741   9.038  0.00  0.00    -0.050 A 
ATOM     31  C   UNL     1     -24.989   4.492  10.179  0.00  0.00    +0.005 A 
ATOM     32  C   UNL     1     -25.407   3.557  11.127  0.00  0.00    +0.029 A 
ATOM     33  C   UNL     1     -26.618   2.885  10.945  0.00  0.00    +0.109 A 
ATOM     34  C   UNL     1     -27.398   3.121   9.810  0.00  0.00    +0.029 A 
ATOM     35  C   UNL     1     -26.974   4.056   8.865  0.00  0.00    +0.005 A 
ENDBRANCH  26  33
ENDBRANCH  24  26
ENDBRANCH   1  24
TORSDOF 4
ENDMDL
