MODEL 1
REMARK VINA RESULT:   -13.140      0.000      0.000
REMARK INTER + INTRA:         -16.827
REMARK INTER:                 -16.212
REMARK INTRA:                  -0.615
REMARK UNBOUND:                -0.615
REMARK  Name = CHEMBL4435994
REMARK  5 active torsions:
REMARK  status: ('A' for Active; 'I' for Inactive)
REMARK    1  A    between atoms: C_1  and  C_2
REMARK    2  A    between atoms: C_5  and  S_6
REMARK    3  A    between atoms: S_6  and  N_9
REMARK    4  A    between atoms: N_9  and  C_10
REMARK    5  A    between atoms: C_15  and  C_16
REMARK                            x       y       z     vdW  Elec       q    Type
REMARK                         _______ _______ _______ _____ _____    ______ ____
ROOT
ATOM      1  C   UNL     1     -34.001   4.627   9.910  0.00  0.00    +0.060 A 
ATOM      2  C   UNL     1     -34.085   3.338  10.448  0.00  0.00    +0.025 A 
ATOM      3  C   UNL     1     -32.971   2.496  10.454  0.00  0.00    +0.002 A 
ATOM      4  C   UNL     1     -31.764   2.934   9.920  0.00  0.00    +0.001 A 
ATOM      5  C   UNL     1     -31.675   4.203   9.345  0.00  0.00    +0.015 A 
ATOM      6  C   UNL     1     -32.799   5.048   9.300  0.00  0.00    +0.059 A 
ENDROOT
BRANCH   6   7
ATOM      7  C   UNL     1     -32.716   6.387   8.630  0.00  0.00    +0.252 C 
ATOM      8  O   UNL     1     -33.765   6.941   8.313  0.00  0.00    -0.270 OA
ATOM      9  N   UNL     1     -31.444   6.846   8.373  0.00  0.00    -0.261 N 
ATOM     10  C   UNL     1     -31.096   8.052   7.818  0.00  0.00    +0.166 A 
ATOM     11  N   UNL     1     -29.841   8.318   7.548  0.00  0.00    -0.224 NA
ATOM     12  C   UNL     1     -29.734   9.598   7.007  0.00  0.00    +0.088 A 
ATOM     13  C   UNL     1     -30.945  10.286   6.894  0.00  0.00    +0.041 A 
ATOM     14  C   UNL     1     -31.023  11.586   6.372  0.00  0.00    +0.018 A 
ATOM     15  C   UNL     1     -29.842  12.207   5.953  0.00  0.00    +0.010 A 
ATOM     16  C   UNL     1     -28.605  11.560   6.047  0.00  0.00    -0.016 A 
ATOM     17  C   UNL     1     -27.416  12.179   5.630  0.00  0.00    +0.008 A 
ATOM     18  C   UNL     1     -26.191  11.514   5.732  0.00  0.00    +0.001 A 
ATOM     19  C   UNL     1     -26.132  10.223   6.251  0.00  0.00    +0.001 A 
ATOM     20  C   UNL     1     -27.300   9.588   6.674  0.00  0.00    +0.010 A 
ATOM     21  C   UNL     1     -28.540  10.248   6.576  0.00  0.00    +0.009 A 
ATOM     22  S   UNL     1     -32.214   9.284   7.483  0.00  0.00    -0.052 S 
ATOM     23  H   UNL     1     -30.644   6.246   8.502  0.00  0.00    +0.157 HD
ENDBRANCH   6   7
BRANCH   1  24
ATOM     24  N   UNL     1     -35.154   5.487   9.969  0.00  0.00    -0.216 N 
ATOM     25  H   UNL     1     -35.568   5.567  10.911  0.00  0.00    +0.174 HD
BRANCH  24  26
ATOM     26  S   UNL     1     -36.428   5.210   8.876  0.00  0.00    +0.072 S 
ATOM     27  O   UNL     1     -37.168   6.449   8.774  0.00  0.00    -0.150 OA
ATOM     28  O   UNL     1     -35.905   4.561   7.691  0.00  0.00    -0.150 OA
BRANCH  26  33
ATOM     29  C   UNL     1     -39.945   1.227  11.819  0.00  0.00    +0.044 C 
ATOM     30  C   UNL     1     -39.097   2.214  11.072  0.00  0.00    -0.050 A 
ATOM     31  C   UNL     1     -39.079   3.562  11.454  0.00  0.00    +0.005 A 
ATOM     32  C   UNL     1     -38.270   4.478  10.779  0.00  0.00    +0.029 A 
ATOM     33  C   UNL     1     -37.455   4.038   9.734  0.00  0.00    +0.109 A 
ATOM     34  C   UNL     1     -37.464   2.698   9.340  0.00  0.00    +0.029 A 
ATOM     35  C   UNL     1     -38.277   1.787  10.018  0.00  0.00    +0.005 A 
ENDBRANCH  26  33
ENDBRANCH  24  26
ENDBRANCH   1  24
TORSDOF 4
ENDMDL
MODEL 2
REMARK VINA RESULT:   -13.036      4.318      5.721
REMARK INTER + INTRA:         -16.699
REMARK INTER:                 -16.269
REMARK INTRA:                  -0.430
REMARK UNBOUND:                -0.615
REMARK  Name = CHEMBL4435994
REMARK  5 active torsions:
REMARK  status: ('A' for Active; 'I' for Inactive)
REMARK    1  A    between atoms: C_1  and  C_2
REMARK    2  A    between atoms: C_5  and  S_6
REMARK    3  A    between atoms: S_6  and  N_9
REMARK    4  A    between atoms: N_9  and  C_10
REMARK    5  A    between atoms: C_15  and  C_16
REMARK                            x       y       z     vdW  Elec       q    Type
REMARK                         _______ _______ _______ _____ _____    ______ ____
ROOT
ATOM      1  C   UNL     1     -27.106   2.328  10.184  0.00  0.00    +0.060 A 
ATOM      2  C   UNL     1     -26.125   1.423  10.604  0.00  0.00    +0.025 A 
ATOM      3  C   UNL     1     -24.820   1.852  10.853  0.00  0.00    +0.002 A 
ATOM      4  C   UNL     1     -24.483   3.191  10.681  0.00  0.00    +0.001 A 
ATOM      5  C   UNL     1     -25.440   4.099  10.225  0.00  0.00    +0.015 A 
ATOM      6  C   UNL     1     -26.750   3.672   9.937  0.00  0.00    +0.059 A 
ENDROOT
BRANCH   6   7
ATOM      7  C   UNL     1     -27.760   4.637   9.391  0.00  0.00    +0.252 C 
ATOM      8  O   UNL     1     -28.942   4.310   9.413  0.00  0.00    -0.270 OA
ATOM      9  N   UNL     1     -27.245   5.793   8.850  0.00  0.00    -0.261 N 
ATOM     10  C   UNL     1     -27.952   6.850   8.332  0.00  0.00    +0.166 A 
ATOM     11  N   UNL     1     -27.324   7.851   7.765  0.00  0.00    -0.224 NA
ATOM     12  C   UNL     1     -28.245   8.804   7.332  0.00  0.00    +0.088 A 
ATOM     13  C   UNL     1     -29.579   8.491   7.605  0.00  0.00    +0.041 A 
ATOM     14  C   UNL     1     -30.637   9.336   7.241  0.00  0.00    +0.018 A 
ATOM     15  C   UNL     1     -30.336  10.534   6.582  0.00  0.00    +0.010 A 
ATOM     16  C   UNL     1     -29.017  10.892   6.288  0.00  0.00    -0.016 A 
ATOM     17  C   UNL     1     -28.708  12.092   5.628  0.00  0.00    +0.008 A 
ATOM     18  C   UNL     1     -27.382  12.430   5.343  0.00  0.00    +0.001 A 
ATOM     19  C   UNL     1     -26.344  11.577   5.711  0.00  0.00    +0.001 A 
ATOM     20  C   UNL     1     -26.625  10.380   6.368  0.00  0.00    +0.010 A 
ATOM     21  C   UNL     1     -27.957  10.029   6.661  0.00  0.00    +0.009 A 
ATOM     22  S   UNL     1     -29.642   6.974   8.417  0.00  0.00    -0.052 S 
ATOM     23  H   UNL     1     -26.252   5.899   8.708  0.00  0.00    +0.157 HD
ENDBRANCH   6   7
BRANCH   1  24
ATOM     24  N   UNL     1     -28.453   1.860   9.988  0.00  0.00    -0.216 N 
ATOM     25  H   UNL     1     -29.127   2.610   9.770  0.00  0.00    +0.174 HD
BRANCH  24  26
ATOM     26  S   UNL     1     -29.152   0.878  11.188  0.00  0.00    +0.072 S 
ATOM     27  O   UNL     1     -29.081  -0.485  10.707  0.00  0.00    -0.150 OA
ATOM     28  O   UNL     1     -28.600   1.238  12.478  0.00  0.00    -0.150 OA
BRANCH  26  33
ATOM     29  C   UNL     1     -34.990   2.552  11.102  0.00  0.00    +0.044 C 
ATOM     30  C   UNL     1     -33.556   2.112  11.114  0.00  0.00    -0.050 A 
ATOM     31  C   UNL     1     -32.717   2.409  10.032  0.00  0.00    +0.005 A 
ATOM     32  C   UNL     1     -31.375   2.027  10.051  0.00  0.00    +0.029 A 
ATOM     33  C   UNL     1     -30.863   1.366  11.169  0.00  0.00    +0.109 A 
ATOM     34  C   UNL     1     -31.688   1.061  12.255  0.00  0.00    +0.029 A 
ATOM     35  C   UNL     1     -33.029   1.445  12.229  0.00  0.00    +0.005 A 
ENDBRANCH  26  33
ENDBRANCH  24  26
ENDBRANCH   1  24
TORSDOF 4
ENDMDL
MODEL 3
REMARK VINA RESULT:   -12.479      2.440      4.815
REMARK INTER + INTRA:         -16.012
REMARK INTER:                 -15.467
REMARK INTRA:                  -0.546
REMARK UNBOUND:                -0.615
REMARK  Name = CHEMBL4435994
REMARK  5 active torsions:
REMARK  status: ('A' for Active; 'I' for Inactive)
REMARK    1  A    between atoms: C_1  and  C_2
REMARK    2  A    between atoms: C_5  and  S_6
REMARK    3  A    between atoms: S_6  and  N_9
REMARK    4  A    between atoms: N_9  and  C_10
REMARK    5  A    between atoms: C_15  and  C_16
REMARK                            x       y       z     vdW  Elec       q    Type
REMARK                         _______ _______ _______ _____ _____    ______ ____
ROOT
ATOM      1  C   UNL     1     -36.194   3.840  10.463  0.00  0.00    +0.060 A 
ATOM      2  C   UNL     1     -37.562   3.615  10.654  0.00  0.00    +0.025 A 
ATOM      3  C   UNL     1     -38.511   4.454  10.066  0.00  0.00    +0.002 A 
ATOM      4  C   UNL     1     -38.099   5.528   9.284  0.00  0.00    +0.001 A 
ATOM      5  C   UNL     1     -36.738   5.789   9.115  0.00  0.00    +0.015 A 
ATOM      6  C   UNL     1     -35.773   4.972   9.731  0.00  0.00    +0.059 A 
ENDROOT
BRANCH   6   7
ATOM      7  C   UNL     1     -34.313   5.289   9.598  0.00  0.00    +0.252 C 
ATOM      8  O   UNL     1     -33.507   4.546  10.149  0.00  0.00    -0.270 OA
ATOM      9  N   UNL     1     -34.016   6.442   8.907  0.00  0.00    -0.261 N 
ATOM     10  C   UNL     1     -32.768   6.928   8.605  0.00  0.00    +0.166 A 
ATOM     11  N   UNL     1     -32.636   8.092   8.018  0.00  0.00    -0.224 NA
ATOM     12  C   UNL     1     -31.285   8.362   7.802  0.00  0.00    +0.088 A 
ATOM     13  C   UNL     1     -30.414   7.360   8.234  0.00  0.00    +0.041 A 
ATOM     14  C   UNL     1     -29.022   7.465   8.095  0.00  0.00    +0.018 A 
ATOM     15  C   UNL     1     -28.498   8.618   7.500  0.00  0.00    +0.010 A 
ATOM     16  C   UNL     1     -29.329   9.649   7.051  0.00  0.00    -0.016 A 
ATOM     17  C   UNL     1     -28.809  10.808   6.454  0.00  0.00    +0.008 A 
ATOM     18  C   UNL     1     -29.658  11.827   6.012  0.00  0.00    +0.001 A 
ATOM     19  C   UNL     1     -31.038  11.706   6.160  0.00  0.00    +0.001 A 
ATOM     20  C   UNL     1     -31.578  10.563   6.750  0.00  0.00    +0.010 A 
ATOM     21  C   UNL     1     -30.733   9.530   7.198  0.00  0.00    +0.009 A 
ATOM     22  S   UNL     1     -31.334   6.074   8.914  0.00  0.00    -0.052 S 
ATOM     23  H   UNL     1     -34.745   7.089   8.646  0.00  0.00    +0.157 HD
ENDBRANCH   6   7
BRANCH   1  24
ATOM     24  N   UNL     1     -35.246   2.924  11.041  0.00  0.00    -0.216 N 
ATOM     25  H   UNL     1     -34.332   3.351  11.257  0.00  0.00    +0.174 HD
BRANCH  24  26
ATOM     26  S   UNL     1     -34.945   1.456  10.236  0.00  0.00    +0.072 S 
ATOM     27  O   UNL     1     -36.084   0.599  10.488  0.00  0.00    -0.150 OA
ATOM     28  O   UNL     1     -34.514   1.736   8.882  0.00  0.00    -0.150 OA
BRANCH  26  33
ATOM     29  C   UNL     1     -30.212  -0.831  13.281  0.00  0.00    +0.044 C 
ATOM     30  C   UNL     1     -31.399  -0.281  12.545  0.00  0.00    -0.050 A 
ATOM     31  C   UNL     1     -31.917   0.977  12.881  0.00  0.00    +0.005 A 
ATOM     32  C   UNL     1     -33.003   1.504  12.181  0.00  0.00    +0.029 A 
ATOM     33  C   UNL     1     -33.558   0.781  11.124  0.00  0.00    +0.109 A 
ATOM     34  C   UNL     1     -33.054  -0.476  10.779  0.00  0.00    +0.029 A 
ATOM     35  C   UNL     1     -31.969  -0.998  11.484  0.00  0.00    +0.005 A 
ENDBRANCH  26  33
ENDBRANCH  24  26
ENDBRANCH   1  24
TORSDOF 4
ENDMDL
