MODEL 1
REMARK VINA RESULT:   -13.005      0.000      0.000
REMARK INTER + INTRA:         -19.116
REMARK INTER:                 -18.707
REMARK INTRA:                  -0.409
REMARK UNBOUND:                -0.409
REMARK  Name = CHEMBL11899
REMARK  8 active torsions:
REMARK  status: ('A' for Active; 'I' for Inactive)
REMARK    1  A    between atoms: C_2  and  C_3
REMARK    2  A    between atoms: C_2  and  C_23
REMARK    3  A    between atoms: C_4  and  C_5
REMARK    4  A    between atoms: C_8  and  O_9
REMARK    5  A    between atoms: O_9  and  C_10
REMARK    6  A    between atoms: C_10  and  C_11
REMARK    7  A    between atoms: C_25  and  C_26
REMARK    8  A    between atoms: C_33  and  O_34
REMARK                            x       y       z     vdW  Elec       q    Type
REMARK                         _______ _______ _______ _____ _____    ______ ____
ROOT
ATOM      1  C   UNL     1      -3.531 -12.343 -51.339  0.00  0.00    +0.052 C 
ATOM      2  C   UNL     1      -4.641 -11.809 -51.873  0.00  0.00    +0.012 C 
ENDROOT
BRANCH   2   3
ATOM      3  C   UNL     1      -5.435 -12.454 -52.925  0.00  0.00    -0.025 A 
ATOM      4  C   UNL     1      -5.836 -11.695 -54.031  0.00  0.00    +0.011 A 
ATOM      5  C   UNL     1      -6.573 -12.273 -55.074  0.00  0.00    +0.046 A 
ATOM      6  C   UNL     1      -6.912 -13.625 -55.026  0.00  0.00    +0.121 A 
ATOM      7  C   UNL     1      -6.499 -14.390 -53.934  0.00  0.00    +0.046 A 
ATOM      8  C   UNL     1      -5.762 -13.814 -52.894  0.00  0.00    +0.011 A 
BRANCH   6   9
ATOM      9  O   UNL     1      -7.626 -14.312 -55.967  0.00  0.00    -0.486 OA
BRANCH   9  10
ATOM     10  C   UNL     1      -7.149 -14.252 -57.314  0.00  0.00    +0.284 C 
BRANCH  10  11
ATOM     11  C   UNL     1      -5.900 -15.095 -57.464  0.00  0.00    +0.079 A 
ATOM     12  C   UNL     1      -5.620 -16.114 -56.561  0.00  0.00    +0.027 A 
ATOM     13  C   UNL     1      -4.480 -16.886 -56.754  0.00  0.00    +0.012 A 
ATOM     14  C   UNL     1      -3.647 -16.634 -57.849  0.00  0.00    +0.000 A 
ATOM     15  C   UNL     1      -2.484 -17.388 -58.084  0.00  0.00    +0.010 A 
ATOM     16  C   UNL     1      -1.676 -17.111 -59.185  0.00  0.00    +0.001 A 
ATOM     17  C   UNL     1      -2.027 -16.084 -60.053  0.00  0.00    +0.002 A 
ATOM     18  C   UNL     1      -3.186 -15.337 -59.815  0.00  0.00    +0.028 A 
ATOM     19  C   UNL     1      -4.008 -15.591 -58.726  0.00  0.00    +0.071 A 
ATOM     20  N   UNL     1      -5.112 -14.843 -58.542  0.00  0.00    -0.248 NA
ENDBRANCH  10  11
ENDBRANCH   9  10
ENDBRANCH   6   9
ENDBRANCH   2   3
BRANCH   1  22
ATOM     21  O   UNL     1      -2.640 -10.399 -50.298  0.00  0.00    -0.287 OA
ATOM     22  C   UNL     1      -2.806 -11.614 -50.263  0.00  0.00    +0.190 C 
BRANCH  22  23
ATOM     23  C   UNL     1      -2.343 -12.386 -49.082  0.00  0.00    +0.064 A 
ATOM     24  C   UNL     1      -0.974 -12.315 -48.773  0.00  0.00    +0.027 A 
ATOM     25  C   UNL     1      -0.443 -13.016 -47.681  0.00  0.00    +0.024 A 
ATOM     26  C   UNL     1      -1.305 -13.803 -46.904  0.00  0.00    +0.015 A 
ATOM     27  C   UNL     1      -2.665 -13.897 -47.214  0.00  0.00    +0.047 A 
ATOM     28  C   UNL     1      -3.181 -13.194 -48.304  0.00  0.00    +0.128 A 
BRANCH  25  29
ATOM     29  C   UNL     1       0.974 -12.932 -47.354  0.00  0.00    +0.204 A 
ATOM     30  N   UNL     1       1.951 -13.572 -48.085  0.00  0.00    -0.108 NA
ATOM     31  N   UNL     1       3.111 -13.283 -47.515  0.00  0.00    -0.049 NA
ATOM     32  N   UNL     1       2.789 -12.495 -46.484  0.00  0.00    -0.176 N 
ATOM     33  N   UNL     1       1.484 -12.241 -46.319  0.00  0.00    -0.133 NA
ATOM     34  H   UNL     1       3.498 -12.113 -45.863  0.00  0.00    +0.214 HD
ENDBRANCH  25  29
BRANCH  28  35
ATOM     35  O   UNL     1      -4.505 -13.332 -48.614  0.00  0.00    -0.506 OA
ATOM     36  H   UNL     1      -4.838 -12.499 -48.992  0.00  0.00    +0.292 HD
ENDBRANCH  28  35
ENDBRANCH  22  23
ENDBRANCH   1  22
TORSDOF 8
ENDMDL
MODEL 2
REMARK VINA RESULT:   -12.369      4.593     11.522
REMARK INTER + INTRA:         -18.202
REMARK INTER:                 -16.962
REMARK INTRA:                  -1.240
REMARK UNBOUND:                -0.409
REMARK  Name = CHEMBL11899
REMARK  8 active torsions:
REMARK  status: ('A' for Active; 'I' for Inactive)
REMARK    1  A    between atoms: C_2  and  C_3
REMARK    2  A    between atoms: C_2  and  C_23
REMARK    3  A    between atoms: C_4  and  C_5
REMARK    4  A    between atoms: C_8  and  O_9
REMARK    5  A    between atoms: O_9  and  C_10
REMARK    6  A    between atoms: C_10  and  C_11
REMARK    7  A    between atoms: C_25  and  C_26
REMARK    8  A    between atoms: C_33  and  O_34
REMARK                            x       y       z     vdW  Elec       q    Type
REMARK                         _______ _______ _______ _____ _____    ______ ____
ROOT
ATOM      1  C   UNL     1      -3.705 -16.888 -61.189  0.00  0.00    +0.052 C 
ATOM      2  C   UNL     1      -3.880 -15.718 -60.554  0.00  0.00    +0.012 C 
ENDROOT
BRANCH   2   3
ATOM      3  C   UNL     1      -4.194 -15.600 -59.125  0.00  0.00    -0.025 A 
ATOM      4  C   UNL     1      -5.398 -14.994 -58.745  0.00  0.00    +0.011 A 
ATOM      5  C   UNL     1      -5.754 -14.882 -57.394  0.00  0.00    +0.046 A 
ATOM      6  C   UNL     1      -4.910 -15.383 -56.404  0.00  0.00    +0.121 A 
ATOM      7  C   UNL     1      -3.717 -16.003 -56.780  0.00  0.00    +0.046 A 
ATOM      8  C   UNL     1      -3.362 -16.117 -58.128  0.00  0.00    +0.011 A 
BRANCH   6   9
ATOM      9  O   UNL     1      -5.130 -15.338 -55.057  0.00  0.00    -0.486 OA
BRANCH   9  10
ATOM     10  C   UNL     1      -6.075 -14.373 -54.585  0.00  0.00    +0.284 C 
BRANCH  10  11
ATOM     11  C   UNL     1      -5.399 -13.398 -53.645  0.00  0.00    +0.079 A 
ATOM     12  C   UNL     1      -5.913 -12.119 -53.460  0.00  0.00    +0.027 A 
ATOM     13  C   UNL     1      -5.281 -11.266 -52.562  0.00  0.00    +0.012 A 
ATOM     14  C   UNL     1      -4.154 -11.708 -51.859  0.00  0.00    +0.000 A 
ATOM     15  C   UNL     1      -3.483 -10.880 -50.942  0.00  0.00    +0.010 A 
ATOM     16  C   UNL     1      -2.364 -11.352 -50.258  0.00  0.00    +0.001 A 
ATOM     17  C   UNL     1      -1.915 -12.647 -50.485  0.00  0.00    +0.002 A 
ATOM     18  C   UNL     1      -2.588 -13.466 -51.398  0.00  0.00    +0.028 A 
ATOM     19  C   UNL     1      -3.704 -13.023 -52.094  0.00  0.00    +0.071 A 
ATOM     20  N   UNL     1      -4.316 -13.850 -52.962  0.00  0.00    -0.248 NA
ENDBRANCH  10  11
ENDBRANCH   9  10
ENDBRANCH   6   9
ENDBRANCH   2   3
BRANCH   1  22
ATOM     21  O   UNL     1      -3.910 -16.135 -63.435  0.00  0.00    -0.287 OA
ATOM     22  C   UNL     1      -3.373 -16.899 -62.639  0.00  0.00    +0.190 C 
BRANCH  22  23
ATOM     23  C   UNL     1      -2.304 -17.816 -63.107  0.00  0.00    +0.064 A 
ATOM     24  C   UNL     1      -1.260 -18.087 -62.206  0.00  0.00    +0.027 A 
ATOM     25  C   UNL     1      -0.202 -18.936 -62.562  0.00  0.00    +0.024 A 
ATOM     26  C   UNL     1      -0.197 -19.504 -63.844  0.00  0.00    +0.015 A 
ATOM     27  C   UNL     1      -1.220 -19.224 -64.756  0.00  0.00    +0.047 A 
ATOM     28  C   UNL     1      -2.267 -18.378 -64.389  0.00  0.00    +0.128 A 
BRANCH  25  29
ATOM     29  C   UNL     1       0.873 -19.227 -61.622  0.00  0.00    +0.204 A 
ATOM     30  N   UNL     1       1.573 -20.413 -61.629  0.00  0.00    -0.108 NA
ATOM     31  N   UNL     1       2.466 -20.339 -60.653  0.00  0.00    -0.049 NA
ATOM     32  N   UNL     1       2.269 -19.133 -60.111  0.00  0.00    -0.176 N 
ATOM     33  N   UNL     1       1.294 -18.392 -60.656  0.00  0.00    -0.133 NA
ATOM     34  H   UNL     1       2.829 -18.801 -59.330  0.00  0.00    +0.214 HD
ENDBRANCH  25  29
BRANCH  28  35
ATOM     35  O   UNL     1      -3.234 -18.086 -65.309  0.00  0.00    -0.506 OA
ATOM     36  H   UNL     1      -2.889 -18.247 -66.204  0.00  0.00    +0.292 HD
ENDBRANCH  28  35
ENDBRANCH  22  23
ENDBRANCH   1  22
TORSDOF 8
ENDMDL
MODEL 3
REMARK VINA RESULT:   -11.980      6.452     12.410
REMARK INTER + INTRA:         -17.641
REMARK INTER:                 -16.636
REMARK INTRA:                  -1.006
REMARK UNBOUND:                -0.409
REMARK  Name = CHEMBL11899
REMARK  8 active torsions:
REMARK  status: ('A' for Active; 'I' for Inactive)
REMARK    1  A    between atoms: C_2  and  C_3
REMARK    2  A    between atoms: C_2  and  C_23
REMARK    3  A    between atoms: C_4  and  C_5
REMARK    4  A    between atoms: C_8  and  O_9
REMARK    5  A    between atoms: O_9  and  C_10
REMARK    6  A    between atoms: C_10  and  C_11
REMARK    7  A    between atoms: C_25  and  C_26
REMARK    8  A    between atoms: C_33  and  O_34
REMARK                            x       y       z     vdW  Elec       q    Type
REMARK                         _______ _______ _______ _____ _____    ______ ____
ROOT
ATOM      1  C   UNL     1      -2.807 -19.624 -60.945  0.00  0.00    +0.052 C 
ATOM      2  C   UNL     1      -2.160 -18.563 -60.437  0.00  0.00    +0.012 C 
ENDROOT
BRANCH   2   3
ATOM      3  C   UNL     1      -2.779 -17.577 -59.544  0.00  0.00    -0.025 A 
ATOM      4  C   UNL     1      -3.231 -16.366 -60.083  0.00  0.00    +0.011 A 
ATOM      5  C   UNL     1      -3.852 -15.404 -59.274  0.00  0.00    +0.046 A 
ATOM      6  C   UNL     1      -4.037 -15.646 -57.914  0.00  0.00    +0.121 A 
ATOM      7  C   UNL     1      -3.605 -16.860 -57.376  0.00  0.00    +0.046 A 
ATOM      8  C   UNL     1      -2.986 -17.821 -58.182  0.00  0.00    +0.011 A 
BRANCH   6   9
ATOM      9  O   UNL     1      -4.621 -14.800 -57.016  0.00  0.00    -0.486 OA
BRANCH   9  10
ATOM     10  C   UNL     1      -6.050 -14.727 -57.027  0.00  0.00    +0.284 C 
BRANCH  10  11
ATOM     11  C   UNL     1      -6.588 -14.812 -55.614  0.00  0.00    +0.079 A 
ATOM     12  C   UNL     1      -5.791 -15.288 -54.579  0.00  0.00    +0.027 A 
ATOM     13  C   UNL     1      -6.312 -15.318 -53.291  0.00  0.00    +0.012 A 
ATOM     14  C   UNL     1      -7.614 -14.863 -53.057  0.00  0.00    +0.000 A 
ATOM     15  C   UNL     1      -8.183 -14.875 -51.771  0.00  0.00    +0.010 A 
ATOM     16  C   UNL     1      -9.483 -14.413 -51.573  0.00  0.00    +0.001 A 
ATOM     17  C   UNL     1     -10.215 -13.938 -52.654  0.00  0.00    +0.002 A 
ATOM     18  C   UNL     1      -9.644 -13.928 -53.931  0.00  0.00    +0.028 A 
ATOM     19  C   UNL     1      -8.352 -14.383 -54.158  0.00  0.00    +0.071 A 
ATOM     20  N   UNL     1      -7.849 -14.351 -55.405  0.00  0.00    -0.248 NA
ENDBRANCH  10  11
ENDBRANCH   9  10
ENDBRANCH   6   9
ENDBRANCH   2   3
BRANCH   1  22
ATOM     21  O   UNL     1      -2.023 -21.777 -61.583  0.00  0.00    -0.287 OA
ATOM     22  C   UNL     1      -2.083 -20.576 -61.830  0.00  0.00    +0.190 C 
BRANCH  22  23
ATOM     23  C   UNL     1      -1.485 -20.052 -63.084  0.00  0.00    +0.064 A 
ATOM     24  C   UNL     1      -0.298 -19.310 -62.961  0.00  0.00    +0.027 A 
ATOM     25  C   UNL     1       0.335 -18.769 -64.089  0.00  0.00    +0.024 A 
ATOM     26  C   UNL     1      -0.246 -18.973 -65.349  0.00  0.00    +0.015 A 
ATOM     27  C   UNL     1      -1.437 -19.693 -65.481  0.00  0.00    +0.047 A 
ATOM     28  C   UNL     1      -2.057 -20.226 -64.350  0.00  0.00    +0.128 A 
BRANCH  25  29
ATOM     29  C   UNL     1       1.572 -18.010 -63.961  0.00  0.00    +0.204 A 
ATOM     30  N   UNL     1       2.082 -17.606 -62.747  0.00  0.00    -0.108 NA
ATOM     31  N   UNL     1       3.203 -16.947 -63.000  0.00  0.00    -0.049 NA
ATOM     32  N   UNL     1       3.318 -16.982 -64.332  0.00  0.00    -0.176 N 
ATOM     33  N   UNL     1       2.341 -17.617 -64.992  0.00  0.00    -0.133 NA
ATOM     34  H   UNL     1       4.104 -16.549 -64.811  0.00  0.00    +0.214 HD
ENDBRANCH  25  29
BRANCH  28  35
ATOM     35  O   UNL     1      -3.242 -20.891 -64.497  0.00  0.00    -0.506 OA
ATOM     36  H   UNL     1      -3.955 -20.379 -64.076  0.00  0.00    +0.292 HD
ENDBRANCH  28  35
ENDBRANCH  22  23
ENDBRANCH   1  22
TORSDOF 8
ENDMDL
