MODEL 1
REMARK VINA RESULT:   -12.527      0.000      0.000
REMARK INTER + INTRA:         -18.449
REMARK INTER:                 -18.019
REMARK INTRA:                  -0.430
REMARK UNBOUND:                -0.430
REMARK  Name = CHEMBL11899
REMARK  8 active torsions:
REMARK  status: ('A' for Active; 'I' for Inactive)
REMARK    1  A    between atoms: C_2  and  C_3
REMARK    2  A    between atoms: C_2  and  C_23
REMARK    3  A    between atoms: C_4  and  C_5
REMARK    4  A    between atoms: C_8  and  O_9
REMARK    5  A    between atoms: O_9  and  C_10
REMARK    6  A    between atoms: C_10  and  C_11
REMARK    7  A    between atoms: C_25  and  C_26
REMARK    8  A    between atoms: C_33  and  O_34
REMARK                            x       y       z     vdW  Elec       q    Type
REMARK                         _______ _______ _______ _____ _____    ______ ____
ROOT
ATOM      1  C   UNL     1      -3.601 -12.582 -51.415  0.00  0.00    +0.052 C 
ATOM      2  C   UNL     1      -4.689 -12.065 -52.007  0.00  0.00    +0.012 C 
ENDROOT
BRANCH   2   3
ATOM      3  C   UNL     1      -5.442 -12.740 -53.071  0.00  0.00    -0.025 A 
ATOM      4  C   UNL     1      -5.689 -14.114 -52.957  0.00  0.00    +0.011 A 
ATOM      5  C   UNL     1      -6.426 -14.797 -53.934  0.00  0.00    +0.046 A 
ATOM      6  C   UNL     1      -6.934 -14.110 -55.036  0.00  0.00    +0.121 A 
ATOM      7  C   UNL     1      -6.706 -12.737 -55.143  0.00  0.00    +0.046 A 
ATOM      8  C   UNL     1      -5.972 -12.054 -54.168  0.00  0.00    +0.011 A 
BRANCH   6   9
ATOM      9  O   UNL     1      -7.663 -14.649 -56.058  0.00  0.00    -0.486 OA
BRANCH   9  10
ATOM     10  C   UNL     1      -7.120 -14.528 -57.376  0.00  0.00    +0.284 C 
BRANCH  10  11
ATOM     11  C   UNL     1      -5.875 -15.379 -57.508  0.00  0.00    +0.079 A 
ATOM     12  C   UNL     1      -5.640 -16.432 -56.631  0.00  0.00    +0.027 A 
ATOM     13  C   UNL     1      -4.502 -17.210 -56.808  0.00  0.00    +0.012 A 
ATOM     14  C   UNL     1      -3.625 -16.930 -57.862  0.00  0.00    +0.000 A 
ATOM     15  C   UNL     1      -2.461 -17.690 -58.079  0.00  0.00    +0.010 A 
ATOM     16  C   UNL     1      -1.610 -17.384 -59.139  0.00  0.00    +0.001 A 
ATOM     17  C   UNL     1      -1.918 -16.323 -59.984  0.00  0.00    +0.002 A 
ATOM     18  C   UNL     1      -3.076 -15.572 -59.763  0.00  0.00    +0.028 A 
ATOM     19  C   UNL     1      -3.942 -15.853 -58.715  0.00  0.00    +0.071 A 
ATOM     20  N   UNL     1      -5.044 -15.100 -58.546  0.00  0.00    -0.248 NA
ENDBRANCH  10  11
ENDBRANCH   9  10
ENDBRANCH   6   9
ENDBRANCH   2   3
BRANCH   1  22
ATOM     21  O   UNL     1      -2.861 -10.597 -50.334  0.00  0.00    -0.287 OA
ATOM     22  C   UNL     1      -2.918 -11.823 -50.333  0.00  0.00    +0.190 C 
BRANCH  22  23
ATOM     23  C   UNL     1      -2.360 -12.584 -49.187  0.00  0.00    +0.064 A 
ATOM     24  C   UNL     1      -0.962 -12.582 -49.043  0.00  0.00    +0.027 A 
ATOM     25  C   UNL     1      -0.344 -13.279 -47.995  0.00  0.00    +0.024 A 
ATOM     26  C   UNL     1      -1.148 -13.992 -47.094  0.00  0.00    +0.015 A 
ATOM     27  C   UNL     1      -2.538 -14.017 -47.240  0.00  0.00    +0.047 A 
ATOM     28  C   UNL     1      -3.141 -13.319 -48.287  0.00  0.00    +0.128 A 
BRANCH  25  29
ATOM     29  C   UNL     1       1.105 -13.267 -47.840  0.00  0.00    +0.204 A 
ATOM     30  N   UNL     1       1.954 -13.966 -48.669  0.00  0.00    -0.108 NA
ATOM     31  N   UNL     1       3.187 -13.732 -48.245  0.00  0.00    -0.049 NA
ATOM     32  N   UNL     1       3.031 -12.916 -47.197  0.00  0.00    -0.176 N 
ATOM     33  N   UNL     1       1.769 -12.592 -46.884  0.00  0.00    -0.133 NA
ATOM     34  H   UNL     1       3.827 -12.565 -46.671  0.00  0.00    +0.214 HD
ENDBRANCH  25  29
BRANCH  28  35
ATOM     35  O   UNL     1      -4.498 -13.390 -48.435  0.00  0.00    -0.506 OA
ATOM     36  H   UNL     1      -4.929 -12.939 -47.688  0.00  0.00    +0.292 HD
ENDBRANCH  28  35
ENDBRANCH  22  23
ENDBRANCH   1  22
TORSDOF 8
ENDMDL
MODEL 2
REMARK VINA RESULT:   -11.968      1.996      2.958
REMARK INTER + INTRA:         -17.646
REMARK INTER:                 -16.524
REMARK INTRA:                  -1.122
REMARK UNBOUND:                -0.430
REMARK  Name = CHEMBL11899
REMARK  8 active torsions:
REMARK  status: ('A' for Active; 'I' for Inactive)
REMARK    1  A    between atoms: C_2  and  C_3
REMARK    2  A    between atoms: C_2  and  C_23
REMARK    3  A    between atoms: C_4  and  C_5
REMARK    4  A    between atoms: C_8  and  O_9
REMARK    5  A    between atoms: O_9  and  C_10
REMARK    6  A    between atoms: C_10  and  C_11
REMARK    7  A    between atoms: C_25  and  C_26
REMARK    8  A    between atoms: C_33  and  O_34
REMARK                            x       y       z     vdW  Elec       q    Type
REMARK                         _______ _______ _______ _____ _____    ______ ____
ROOT
ATOM      1  C   UNL     1      -2.747 -12.834 -49.158  0.00  0.00    +0.052 C 
ATOM      2  C   UNL     1      -2.924 -12.072 -50.249  0.00  0.00    +0.012 C 
ENDROOT
BRANCH   2   3
ATOM      3  C   UNL     1      -3.710 -12.484 -51.418  0.00  0.00    -0.025 A 
ATOM      4  C   UNL     1      -3.480 -13.748 -51.976  0.00  0.00    +0.011 A 
ATOM      5  C   UNL     1      -4.224 -14.196 -53.076  0.00  0.00    +0.046 A 
ATOM      6  C   UNL     1      -5.216 -13.386 -53.628  0.00  0.00    +0.121 A 
ATOM      7  C   UNL     1      -5.460 -12.133 -53.063  0.00  0.00    +0.046 A 
ATOM      8  C   UNL     1      -4.719 -11.685 -51.964  0.00  0.00    +0.011 A 
BRANCH   6   9
ATOM      9  O   UNL     1      -6.009 -13.695 -54.696  0.00  0.00    -0.486 OA
BRANCH   9  10
ATOM     10  C   UNL     1      -6.110 -15.077 -55.051  0.00  0.00    +0.284 C 
BRANCH  10  11
ATOM     11  C   UNL     1      -5.400 -15.331 -56.364  0.00  0.00    +0.079 A 
ATOM     12  C   UNL     1      -5.989 -14.969 -57.570  0.00  0.00    +0.027 A 
ATOM     13  C   UNL     1      -5.288 -15.189 -58.751  0.00  0.00    +0.012 A 
ATOM     14  C   UNL     1      -4.010 -15.757 -58.706  0.00  0.00    +0.000 A 
ATOM     15  C   UNL     1      -3.265 -15.999 -59.874  0.00  0.00    +0.010 A 
ATOM     16  C   UNL     1      -1.995 -16.565 -59.792  0.00  0.00    +0.001 A 
ATOM     17  C   UNL     1      -1.465 -16.889 -58.549  0.00  0.00    +0.002 A 
ATOM     18  C   UNL     1      -2.211 -16.646 -57.390  0.00  0.00    +0.028 A 
ATOM     19  C   UNL     1      -3.479 -16.084 -57.441  0.00  0.00    +0.071 A 
ATOM     20  N   UNL     1      -4.155 -15.870 -56.297  0.00  0.00    -0.248 NA
ENDBRANCH  10  11
ENDBRANCH   9  10
ENDBRANCH   6   9
ENDBRANCH   2   3
BRANCH   1  22
ATOM     21  O   UNL     1      -2.467 -11.810 -47.030  0.00  0.00    -0.287 OA
ATOM     22  C   UNL     1      -1.943 -12.316 -48.018  0.00  0.00    +0.190 C 
BRANCH  22  23
ATOM     23  C   UNL     1      -0.470 -12.493 -48.060  0.00  0.00    +0.064 A 
ATOM     24  C   UNL     1       0.106 -12.733 -49.319  0.00  0.00    +0.027 A 
ATOM     25  C   UNL     1       1.489 -12.920 -49.456  0.00  0.00    +0.024 A 
ATOM     26  C   UNL     1       2.291 -12.875 -48.307  0.00  0.00    +0.015 A 
ATOM     27  C   UNL     1       1.726 -12.657 -47.047  0.00  0.00    +0.047 A 
ATOM     28  C   UNL     1       0.348 -12.472 -46.924  0.00  0.00    +0.128 A 
BRANCH  25  29
ATOM     29  C   UNL     1       2.086 -13.156 -50.764  0.00  0.00    +0.204 A 
ATOM     30  N   UNL     1       1.643 -14.136 -51.624  0.00  0.00    -0.108 NA
ATOM     31  N   UNL     1       2.403 -14.070 -52.707  0.00  0.00    -0.049 NA
ATOM     32  N   UNL     1       3.256 -13.072 -52.457  0.00  0.00    -0.176 N 
ATOM     33  N   UNL     1       3.123 -12.465 -51.270  0.00  0.00    -0.133 NA
ATOM     34  H   UNL     1       3.965 -12.793 -53.132  0.00  0.00    +0.214 HD
ENDBRANCH  25  29
BRANCH  28  35
ATOM     35  O   UNL     1      -0.188 -12.302 -45.678  0.00  0.00    -0.506 OA
ATOM     36  H   UNL     1      -0.996 -12.838 -45.597  0.00  0.00    +0.292 HD
ENDBRANCH  28  35
ENDBRANCH  22  23
ENDBRANCH   1  22
TORSDOF 8
ENDMDL
MODEL 3
REMARK VINA RESULT:   -11.648      6.335     12.746
REMARK INTER + INTRA:         -17.185
REMARK INTER:                 -15.867
REMARK INTRA:                  -1.318
REMARK UNBOUND:                -0.430
REMARK  Name = CHEMBL11899
REMARK  8 active torsions:
REMARK  status: ('A' for Active; 'I' for Inactive)
REMARK    1  A    between atoms: C_2  and  C_3
REMARK    2  A    between atoms: C_2  and  C_23
REMARK    3  A    between atoms: C_4  and  C_5
REMARK    4  A    between atoms: C_8  and  O_9
REMARK    5  A    between atoms: O_9  and  C_10
REMARK    6  A    between atoms: C_10  and  C_11
REMARK    7  A    between atoms: C_25  and  C_26
REMARK    8  A    between atoms: C_33  and  O_34
REMARK                            x       y       z     vdW  Elec       q    Type
REMARK                         _______ _______ _______ _____ _____    ______ ____
ROOT
ATOM      1  C   UNL     1      -2.200 -18.103 -62.006  0.00  0.00    +0.052 C 
ATOM      2  C   UNL     1      -1.925 -18.151 -60.693  0.00  0.00    +0.012 C 
ENDROOT
BRANCH   2   3
ATOM      3  C   UNL     1      -2.618 -17.344 -59.681  0.00  0.00    -0.025 A 
ATOM      4  C   UNL     1      -3.219 -16.140 -60.071  0.00  0.00    +0.011 A 
ATOM      5  C   UNL     1      -3.913 -15.349 -59.146  0.00  0.00    +0.046 A 
ATOM      6  C   UNL     1      -4.022 -15.757 -57.817  0.00  0.00    +0.121 A 
ATOM      7  C   UNL     1      -3.440 -16.964 -57.428  0.00  0.00    +0.046 A 
ATOM      8  C   UNL     1      -2.748 -17.756 -58.351  0.00  0.00    +0.011 A 
BRANCH   6   9
ATOM      9  O   UNL     1      -4.664 -15.084 -56.816  0.00  0.00    -0.486 OA
BRANCH   9  10
ATOM     10  C   UNL     1      -6.092 -15.021 -56.889  0.00  0.00    +0.284 C 
BRANCH  10  11
ATOM     11  C   UNL     1      -6.684 -14.992 -55.496  0.00  0.00    +0.079 A 
ATOM     12  C   UNL     1      -5.952 -15.446 -54.404  0.00  0.00    +0.027 A 
ATOM     13  C   UNL     1      -6.520 -15.370 -53.138  0.00  0.00    +0.012 A 
ATOM     14  C   UNL     1      -7.803 -14.835 -52.982  0.00  0.00    +0.000 A 
ATOM     15  C   UNL     1      -8.418 -14.739 -51.721  0.00  0.00    +0.010 A 
ATOM     16  C   UNL     1      -9.697 -14.200 -51.601  0.00  0.00    +0.001 A 
ATOM     17  C   UNL     1     -10.363 -13.754 -52.737  0.00  0.00    +0.002 A 
ATOM     18  C   UNL     1      -9.747 -13.851 -53.988  0.00  0.00    +0.028 A 
ATOM     19  C   UNL     1      -8.474 -14.385 -54.137  0.00  0.00    +0.071 A 
ATOM     20  N   UNL     1      -7.925 -14.455 -55.364  0.00  0.00    -0.248 NA
ENDBRANCH  10  11
ENDBRANCH   9  10
ENDBRANCH   6   9
ENDBRANCH   2   3
BRANCH   1  22
ATOM     21  O   UNL     1      -0.722 -18.515 -63.823  0.00  0.00    -0.287 OA
ATOM     22  C   UNL     1      -1.450 -18.976 -62.949  0.00  0.00    +0.190 C 
BRANCH  22  23
ATOM     23  C   UNL     1      -1.538 -20.446 -62.765  0.00  0.00    +0.064 A 
ATOM     24  C   UNL     1      -2.820 -21.018 -62.823  0.00  0.00    +0.027 A 
ATOM     25  C   UNL     1      -3.002 -22.398 -62.653  0.00  0.00    +0.024 A 
ATOM     26  C   UNL     1      -1.878 -23.201 -62.410  0.00  0.00    +0.015 A 
ATOM     27  C   UNL     1      -0.601 -22.639 -62.330  0.00  0.00    +0.047 A 
ATOM     28  C   UNL     1      -0.432 -21.264 -62.501  0.00  0.00    +0.128 A 
BRANCH  25  29
ATOM     29  C   UNL     1      -4.331 -22.993 -62.725  0.00  0.00    +0.204 A 
ATOM     30  N   UNL     1      -4.547 -24.299 -63.104  0.00  0.00    -0.108 NA
ATOM     31  N   UNL     1      -5.856 -24.501 -63.059  0.00  0.00    -0.049 NA
ATOM     32  N   UNL     1      -6.362 -23.329 -62.662  0.00  0.00    -0.176 N 
ATOM     33  N   UNL     1      -5.477 -22.347 -62.444  0.00  0.00    -0.133 NA
ATOM     34  H   UNL     1      -7.362 -23.195 -62.536  0.00  0.00    +0.214 HD
ENDBRANCH  25  29
BRANCH  28  35
ATOM     35  O   UNL     1       0.820 -20.731 -62.379  0.00  0.00    -0.506 OA
ATOM     36  H   UNL     1       1.419 -21.396 -61.997  0.00  0.00    +0.292 HD
ENDBRANCH  28  35
ENDBRANCH  22  23
ENDBRANCH   1  22
TORSDOF 8
ENDMDL
