MODEL 1
REMARK VINA RESULT:   -13.051      0.000      0.000
REMARK INTER + INTRA:         -19.907
REMARK INTER:                 -18.773
REMARK INTRA:                  -1.134
REMARK UNBOUND:                -1.134
REMARK  Name = CHEMBL11899
REMARK  8 active torsions:
REMARK  status: ('A' for Active; 'I' for Inactive)
REMARK    1  A    between atoms: C_2  and  C_3
REMARK    2  A    between atoms: C_2  and  C_23
REMARK    3  A    between atoms: C_4  and  C_5
REMARK    4  A    between atoms: C_8  and  O_9
REMARK    5  A    between atoms: O_9  and  C_10
REMARK    6  A    between atoms: C_10  and  C_11
REMARK    7  A    between atoms: C_25  and  C_26
REMARK    8  A    between atoms: C_33  and  O_34
REMARK                            x       y       z     vdW  Elec       q    Type
REMARK                         _______ _______ _______ _____ _____    ______ ____
ROOT
ATOM      1  C   UNL     1     -27.034   7.498   7.334  0.00  0.00    +0.052 C 
ATOM      2  C   UNL     1     -26.080   6.588   7.584  0.00  0.00    +0.012 C 
ENDROOT
BRANCH   2   3
ATOM      3  C   UNL     1     -26.230   5.485   8.542  0.00  0.00    -0.025 A 
ATOM      4  C   UNL     1     -25.221   5.271   9.489  0.00  0.00    +0.011 A 
ATOM      5  C   UNL     1     -25.332   4.247  10.440  0.00  0.00    +0.046 A 
ATOM      6  C   UNL     1     -26.460   3.429  10.460  0.00  0.00    +0.121 A 
ATOM      7  C   UNL     1     -27.476   3.651   9.529  0.00  0.00    +0.046 A 
ATOM      8  C   UNL     1     -27.368   4.673   8.580  0.00  0.00    +0.011 A 
BRANCH   6   9
ATOM      9  O   UNL     1     -26.695   2.398  11.326  0.00  0.00    -0.486 OA
BRANCH   9  10
ATOM     10  C   UNL     1     -27.524   2.677  12.458  0.00  0.00    +0.284 C 
BRANCH  10  11
ATOM     11  C   UNL     1     -28.685   1.707  12.505  0.00  0.00    +0.079 A 
ATOM     12  C   UNL     1     -29.381   1.490  13.689  0.00  0.00    +0.027 A 
ATOM     13  C   UNL     1     -30.463   0.617  13.681  0.00  0.00    +0.012 A 
ATOM     14  C   UNL     1     -30.835  -0.018  12.491  0.00  0.00    +0.000 A 
ATOM     15  C   UNL     1     -31.921  -0.910  12.435  0.00  0.00    +0.010 A 
ATOM     16  C   UNL     1     -32.266  -1.524  11.233  0.00  0.00    +0.001 A 
ATOM     17  C   UNL     1     -31.531  -1.249  10.086  0.00  0.00    +0.002 A 
ATOM     18  C   UNL     1     -30.452  -0.360  10.146  0.00  0.00    +0.028 A 
ATOM     19  C   UNL     1     -30.086   0.265  11.331  0.00  0.00    +0.071 A 
ATOM     20  N   UNL     1     -29.040   1.112  11.336  0.00  0.00    -0.248 NA
ENDBRANCH  10  11
ENDBRANCH   9  10
ENDBRANCH   6   9
ENDBRANCH   2   3
BRANCH   1  22
ATOM     21  O   UNL     1     -25.871   8.501   5.518  0.00  0.00    -0.287 OA
ATOM     22  C   UNL     1     -26.788   8.569   6.331  0.00  0.00    +0.190 C 
BRANCH  22  23
ATOM     23  C   UNL     1     -27.737   9.710   6.276  0.00  0.00    +0.064 A 
ATOM     24  C   UNL     1     -29.038   9.478   6.751  0.00  0.00    +0.027 A 
ATOM     25  C   UNL     1     -30.005  10.494   6.732  0.00  0.00    +0.024 A 
ATOM     26  C   UNL     1     -29.652  11.749   6.217  0.00  0.00    +0.015 A 
ATOM     27  C   UNL     1     -28.365  11.985   5.723  0.00  0.00    +0.047 A 
ATOM     28  C   UNL     1     -27.412  10.965   5.747  0.00  0.00    +0.128 A 
BRANCH  25  29
ATOM     29  C   UNL     1     -31.351  10.256   7.237  0.00  0.00    +0.204 A 
ATOM     30  N   UNL     1     -32.011  11.144   8.057  0.00  0.00    -0.108 NA
ATOM     31  N   UNL     1     -33.198  10.616   8.320  0.00  0.00    -0.049 NA
ATOM     32  N   UNL     1     -33.201   9.454   7.658  0.00  0.00    -0.176 N 
ATOM     33  N   UNL     1     -32.088   9.163   6.971  0.00  0.00    -0.133 NA
ATOM     34  H   UNL     1     -34.004   8.831   7.678  0.00  0.00    +0.214 HD
ENDBRANCH  25  29
BRANCH  28  35
ATOM     35  O   UNL     1     -26.174  11.205   5.222  0.00  0.00    -0.506 OA
ATOM     36  H   UNL     1     -25.960  10.516   4.569  0.00  0.00    +0.292 HD
ENDBRANCH  28  35
ENDBRANCH  22  23
ENDBRANCH   1  22
TORSDOF 8
ENDMDL
MODEL 2
REMARK VINA RESULT:   -12.486      5.530      6.965
REMARK INTER + INTRA:         -19.094
REMARK INTER:                 -18.011
REMARK INTRA:                  -1.083
REMARK UNBOUND:                -1.134
REMARK  Name = CHEMBL11899
REMARK  8 active torsions:
REMARK  status: ('A' for Active; 'I' for Inactive)
REMARK    1  A    between atoms: C_2  and  C_3
REMARK    2  A    between atoms: C_2  and  C_23
REMARK    3  A    between atoms: C_4  and  C_5
REMARK    4  A    between atoms: C_8  and  O_9
REMARK    5  A    between atoms: O_9  and  C_10
REMARK    6  A    between atoms: C_10  and  C_11
REMARK    7  A    between atoms: C_25  and  C_26
REMARK    8  A    between atoms: C_33  and  O_34
REMARK                            x       y       z     vdW  Elec       q    Type
REMARK                         _______ _______ _______ _____ _____    ______ ____
ROOT
ATOM      1  C   UNL     1     -31.342  10.149   6.573  0.00  0.00    +0.052 C 
ATOM      2  C   UNL     1     -31.440   9.136   7.448  0.00  0.00    +0.012 C 
ENDROOT
BRANCH   2   3
ATOM      3  C   UNL     1     -32.300   7.963   7.250  0.00  0.00    -0.025 A 
ATOM      4  C   UNL     1     -32.716   7.233   8.371  0.00  0.00    +0.011 A 
ATOM      5  C   UNL     1     -33.558   6.121   8.235  0.00  0.00    +0.046 A 
ATOM      6  C   UNL     1     -34.002   5.729   6.973  0.00  0.00    +0.121 A 
ATOM      7  C   UNL     1     -33.604   6.465   5.855  0.00  0.00    +0.046 A 
ATOM      8  C   UNL     1     -32.765   7.575   5.989  0.00  0.00    +0.011 A 
BRANCH   6   9
ATOM      9  O   UNL     1     -34.819   4.670   6.697  0.00  0.00    -0.486 OA
BRANCH   9  10
ATOM     10  C   UNL     1     -34.716   3.530   7.556  0.00  0.00    +0.284 C 
BRANCH  10  11
ATOM     11  C   UNL     1     -35.967   3.399   8.399  0.00  0.00    +0.079 A 
ATOM     12  C   UNL     1     -36.895   4.432   8.457  0.00  0.00    +0.027 A 
ATOM     13  C   UNL     1     -38.047   4.257   9.217  0.00  0.00    +0.012 A 
ATOM     14  C   UNL     1     -38.255   3.051   9.896  0.00  0.00    +0.000 A 
ATOM     15  C   UNL     1     -39.404   2.830  10.676  0.00  0.00    +0.010 A 
ATOM     16  C   UNL     1     -39.581   1.617  11.339  0.00  0.00    +0.001 A 
ATOM     17  C   UNL     1     -38.615   0.624  11.223  0.00  0.00    +0.002 A 
ATOM     18  C   UNL     1     -37.475   0.850  10.445  0.00  0.00    +0.028 A 
ATOM     19  C   UNL     1     -37.272   2.048   9.775  0.00  0.00    +0.071 A 
ATOM     20  N   UNL     1     -36.158   2.215   9.039  0.00  0.00    -0.248 NA
ENDBRANCH  10  11
ENDBRANCH   9  10
ENDBRANCH   6   9
ENDBRANCH   2   3
BRANCH   1  22
ATOM     21  O   UNL     1     -30.782  12.256   7.524  0.00  0.00    -0.287 OA
ATOM     22  C   UNL     1     -30.427  11.287   6.860  0.00  0.00    +0.190 C 
BRANCH  22  23
ATOM     23  C   UNL     1     -29.024  11.195   6.385  0.00  0.00    +0.064 A 
ATOM     24  C   UNL     1     -28.284  10.076   6.801  0.00  0.00    +0.027 A 
ATOM     25  C   UNL     1     -26.948   9.908   6.409  0.00  0.00    +0.024 A 
ATOM     26  C   UNL     1     -26.356  10.888   5.599  0.00  0.00    +0.015 A 
ATOM     27  C   UNL     1     -27.077  12.016   5.195  0.00  0.00    +0.047 A 
ATOM     28  C   UNL     1     -28.406  12.171   5.593  0.00  0.00    +0.128 A 
BRANCH  25  29
ATOM     29  C   UNL     1     -26.185   8.740   6.831  0.00  0.00    +0.204 A 
ATOM     30  N   UNL     1     -26.742   7.694   7.532  0.00  0.00    -0.108 NA
ATOM     31  N   UNL     1     -25.774   6.816   7.747  0.00  0.00    -0.049 NA
ATOM     32  N   UNL     1     -24.695   7.360   7.176  0.00  0.00    -0.176 N 
ATOM     33  N   UNL     1     -24.874   8.555   6.595  0.00  0.00    -0.133 NA
ATOM     34  H   UNL     1     -23.792   6.892   7.185  0.00  0.00    +0.214 HD
ENDBRANCH  25  29
BRANCH  28  35
ATOM     35  O   UNL     1     -29.079  13.301   5.221  0.00  0.00    -0.506 OA
ATOM     36  H   UNL     1     -28.689  14.072   5.668  0.00  0.00    +0.292 HD
ENDBRANCH  28  35
ENDBRANCH  22  23
ENDBRANCH   1  22
TORSDOF 8
ENDMDL
MODEL 3
REMARK VINA RESULT:   -12.360      1.810      2.347
REMARK INTER + INTRA:         -18.913
REMARK INTER:                 -17.623
REMARK INTRA:                  -1.290
REMARK UNBOUND:                -1.134
REMARK  Name = CHEMBL11899
REMARK  8 active torsions:
REMARK  status: ('A' for Active; 'I' for Inactive)
REMARK    1  A    between atoms: C_2  and  C_3
REMARK    2  A    between atoms: C_2  and  C_23
REMARK    3  A    between atoms: C_4  and  C_5
REMARK    4  A    between atoms: C_8  and  O_9
REMARK    5  A    between atoms: O_9  and  C_10
REMARK    6  A    between atoms: C_10  and  C_11
REMARK    7  A    between atoms: C_25  and  C_26
REMARK    8  A    between atoms: C_33  and  O_34
REMARK                            x       y       z     vdW  Elec       q    Type
REMARK                         _______ _______ _______ _____ _____    ______ ____
ROOT
ATOM      1  C   UNL     1     -26.977   7.846   7.328  0.00  0.00    +0.052 C 
ATOM      2  C   UNL     1     -27.005   6.517   7.138  0.00  0.00    +0.012 C 
ENDROOT
BRANCH   2   3
ATOM      3  C   UNL     1     -26.711   5.533   8.186  0.00  0.00    -0.025 A 
ATOM      4  C   UNL     1     -25.504   5.633   8.888  0.00  0.00    +0.011 A 
ATOM      5  C   UNL     1     -25.191   4.732   9.915  0.00  0.00    +0.046 A 
ATOM      6  C   UNL     1     -26.088   3.722  10.259  0.00  0.00    +0.121 A 
ATOM      7  C   UNL     1     -27.301   3.630   9.573  0.00  0.00    +0.046 A 
ATOM      8  C   UNL     1     -27.615   4.529   8.549  0.00  0.00    +0.011 A 
BRANCH   6   9
ATOM      9  O   UNL     1     -25.910   2.780  11.232  0.00  0.00    -0.486 OA
BRANCH   9  10
ATOM     10  C   UNL     1     -26.007   1.409  10.834  0.00  0.00    +0.284 C 
BRANCH  10  11
ATOM     11  C   UNL     1     -26.932   0.659  11.769  0.00  0.00    +0.079 A 
ATOM     12  C   UNL     1     -26.887  -0.728  11.848  0.00  0.00    +0.027 A 
ATOM     13  C   UNL     1     -27.730  -1.376  12.744  0.00  0.00    +0.012 A 
ATOM     14  C   UNL     1     -28.594  -0.628  13.551  0.00  0.00    +0.000 A 
ATOM     15  C   UNL     1     -29.465  -1.240  14.470  0.00  0.00    +0.010 A 
ATOM     16  C   UNL     1     -30.312  -0.464  15.260  0.00  0.00    +0.001 A 
ATOM     17  C   UNL     1     -30.291   0.920  15.135  0.00  0.00    +0.002 A 
ATOM     18  C   UNL     1     -29.423   1.523  14.219  0.00  0.00    +0.028 A 
ATOM     19  C   UNL     1     -28.569   0.776  13.419  0.00  0.00    +0.071 A 
ATOM     20  N   UNL     1     -27.753   1.405  12.554  0.00  0.00    -0.248 NA
ENDBRANCH  10  11
ENDBRANCH   9  10
ENDBRANCH   6   9
ENDBRANCH   2   3
BRANCH   1  22
ATOM     21  O   UNL     1     -26.632   8.803   5.178  0.00  0.00    -0.287 OA
ATOM     22  C   UNL     1     -27.308   8.760   6.202  0.00  0.00    +0.190 C 
BRANCH  22  23
ATOM     23  C   UNL     1     -28.538   9.584   6.305  0.00  0.00    +0.064 A 
ATOM     24  C   UNL     1     -29.717   8.921   6.686  0.00  0.00    +0.027 A 
ATOM     25  C   UNL     1     -30.930   9.615   6.803  0.00  0.00    +0.024 A 
ATOM     26  C   UNL     1     -30.949  10.989   6.520  0.00  0.00    +0.015 A 
ATOM     27  C   UNL     1     -29.786  11.654   6.121  0.00  0.00    +0.047 A 
ATOM     28  C   UNL     1     -28.585  10.952   6.008  0.00  0.00    +0.128 A 
BRANCH  25  29
ATOM     29  C   UNL     1     -32.149   8.929   7.210  0.00  0.00    +0.204 A 
ATOM     30  N   UNL     1     -32.546   7.724   6.674  0.00  0.00    -0.108 NA
ATOM     31  N   UNL     1     -33.684   7.395   7.266  0.00  0.00    -0.049 NA
ATOM     32  N   UNL     1     -33.920   8.398   8.119  0.00  0.00    -0.176 N 
ATOM     33  N   UNL     1     -33.015   9.386   8.133  0.00  0.00    -0.133 NA
ATOM     34  H   UNL     1     -34.741   8.406   8.719  0.00  0.00    +0.214 HD
ENDBRANCH  25  29
BRANCH  28  35
ATOM     35  O   UNL     1     -27.470  11.613   5.577  0.00  0.00    -0.506 OA
ATOM     36  H   UNL     1     -27.000  11.065   4.924  0.00  0.00    +0.292 HD
ENDBRANCH  28  35
ENDBRANCH  22  23
ENDBRANCH   1  22
TORSDOF 8
ENDMDL
