MODEL 1
REMARK VINA RESULT:   -13.357      0.000      0.000
REMARK INTER + INTRA:         -20.377
REMARK INTER:                 -19.213
REMARK INTRA:                  -1.164
REMARK UNBOUND:                -1.164
REMARK  Name = CHEMBL11899
REMARK  8 active torsions:
REMARK  status: ('A' for Active; 'I' for Inactive)
REMARK    1  A    between atoms: C_2  and  C_3
REMARK    2  A    between atoms: C_2  and  C_23
REMARK    3  A    between atoms: C_4  and  C_5
REMARK    4  A    between atoms: C_8  and  O_9
REMARK    5  A    between atoms: O_9  and  C_10
REMARK    6  A    between atoms: C_10  and  C_11
REMARK    7  A    between atoms: C_25  and  C_26
REMARK    8  A    between atoms: C_33  and  O_34
REMARK                            x       y       z     vdW  Elec       q    Type
REMARK                         _______ _______ _______ _____ _____    ______ ____
ROOT
ATOM      1  C   UNL     1     -26.735   7.727   7.139  0.00  0.00    +0.052 C 
ATOM      2  C   UNL     1     -25.894   6.681   7.174  0.00  0.00    +0.012 C 
ENDROOT
BRANCH   2   3
ATOM      3  C   UNL     1     -25.986   5.587   8.148  0.00  0.00    -0.025 A 
ATOM      4  C   UNL     1     -24.919   5.375   9.029  0.00  0.00    +0.011 A 
ATOM      5  C   UNL     1     -24.972   4.359   9.994  0.00  0.00    +0.046 A 
ATOM      6  C   UNL     1     -26.099   3.546  10.094  0.00  0.00    +0.121 A 
ATOM      7  C   UNL     1     -27.173   3.766   9.228  0.00  0.00    +0.046 A 
ATOM      8  C   UNL     1     -27.122   4.780   8.266  0.00  0.00    +0.011 A 
BRANCH   6   9
ATOM      9  O   UNL     1     -26.282   2.524  10.980  0.00  0.00    -0.486 OA
BRANCH   9  10
ATOM     10  C   UNL     1     -27.011   2.822  12.174  0.00  0.00    +0.284 C 
BRANCH  10  11
ATOM     11  C   UNL     1     -28.150   1.839  12.349  0.00  0.00    +0.079 A 
ATOM     12  C   UNL     1     -28.699   1.606  13.604  0.00  0.00    +0.027 A 
ATOM     13  C   UNL     1     -29.765   0.721  13.716  0.00  0.00    +0.012 A 
ATOM     14  C   UNL     1     -30.270   0.092  12.572  0.00  0.00    +0.000 A 
ATOM     15  C   UNL     1     -31.346  -0.810  12.636  0.00  0.00    +0.010 A 
ATOM     16  C   UNL     1     -31.825  -1.418  11.477  0.00  0.00    +0.001 A 
ATOM     17  C   UNL     1     -31.233  -1.125  10.254  0.00  0.00    +0.002 A 
ATOM     18  C   UNL     1     -30.163  -0.226  10.196  0.00  0.00    +0.028 A 
ATOM     19  C   UNL     1     -29.665   0.393  11.334  0.00  0.00    +0.071 A 
ATOM     20  N   UNL     1     -28.634   1.251  11.224  0.00  0.00    -0.248 NA
ENDBRANCH  10  11
ENDBRANCH   9  10
ENDBRANCH   6   9
ENDBRANCH   2   3
BRANCH   1  22
ATOM     21  O   UNL     1     -25.690   8.709   5.242  0.00  0.00    -0.287 OA
ATOM     22  C   UNL     1     -26.566   8.777   6.099  0.00  0.00    +0.190 C 
BRANCH  22  23
ATOM     23  C   UNL     1     -27.542   9.895   6.066  0.00  0.00    +0.064 A 
ATOM     24  C   UNL     1     -28.817   9.641   6.598  0.00  0.00    +0.027 A 
ATOM     25  C   UNL     1     -29.808  10.634   6.603  0.00  0.00    +0.024 A 
ATOM     26  C   UNL     1     -29.506  11.889   6.054  0.00  0.00    +0.015 A 
ATOM     27  C   UNL     1     -28.246  12.145   5.503  0.00  0.00    +0.047 A 
ATOM     28  C   UNL     1     -27.270  11.148   5.504  0.00  0.00    +0.128 A 
BRANCH  25  29
ATOM     29  C   UNL     1     -31.126  10.374   7.166  0.00  0.00    +0.204 A 
ATOM     30  N   UNL     1     -31.908  11.359   7.728  0.00  0.00    -0.108 NA
ATOM     31  N   UNL     1     -33.028  10.777   8.134  0.00  0.00    -0.049 NA
ATOM     32  N   UNL     1     -32.874   9.491   7.805  0.00  0.00    -0.176 N 
ATOM     33  N   UNL     1     -31.718   9.167   7.210  0.00  0.00    -0.133 NA
ATOM     34  H   UNL     1     -33.595   8.800   7.999  0.00  0.00    +0.214 HD
ENDBRANCH  25  29
BRANCH  28  35
ATOM     35  O   UNL     1     -26.060  11.408   4.924  0.00  0.00    -0.506 OA
ATOM     36  H   UNL     1     -25.791  12.320   5.129  0.00  0.00    +0.292 HD
ENDBRANCH  28  35
ENDBRANCH  22  23
ENDBRANCH   1  22
TORSDOF 8
ENDMDL
MODEL 2
REMARK VINA RESULT:   -12.467      4.026      5.471
REMARK INTER + INTRA:         -19.097
REMARK INTER:                 -17.883
REMARK INTRA:                  -1.214
REMARK UNBOUND:                -1.164
REMARK  Name = CHEMBL11899
REMARK  8 active torsions:
REMARK  status: ('A' for Active; 'I' for Inactive)
REMARK    1  A    between atoms: C_2  and  C_3
REMARK    2  A    between atoms: C_2  and  C_23
REMARK    3  A    between atoms: C_4  and  C_5
REMARK    4  A    between atoms: C_8  and  O_9
REMARK    5  A    between atoms: O_9  and  C_10
REMARK    6  A    between atoms: C_10  and  C_11
REMARK    7  A    between atoms: C_25  and  C_26
REMARK    8  A    between atoms: C_33  and  O_34
REMARK                            x       y       z     vdW  Elec       q    Type
REMARK                         _______ _______ _______ _____ _____    ______ ____
ROOT
ATOM      1  C   UNL     1     -30.834   9.588   7.078  0.00  0.00    +0.052 C 
ATOM      2  C   UNL     1     -31.694   8.833   6.376  0.00  0.00    +0.012 C 
ENDROOT
BRANCH   2   3
ATOM      3  C   UNL     1     -32.255   7.566   6.859  0.00  0.00    -0.025 A 
ATOM      4  C   UNL     1     -33.181   6.887   6.058  0.00  0.00    +0.011 A 
ATOM      5  C   UNL     1     -33.724   5.660   6.464  0.00  0.00    +0.046 A 
ATOM      6  C   UNL     1     -33.340   5.092   7.678  0.00  0.00    +0.121 A 
ATOM      7  C   UNL     1     -32.403   5.757   8.472  0.00  0.00    +0.046 A 
ATOM      8  C   UNL     1     -31.859   6.980   8.066  0.00  0.00    +0.011 A 
BRANCH   6   9
ATOM      9  O   UNL     1     -33.789   3.910   8.194  0.00  0.00    -0.486 OA
BRANCH   9  10
ATOM     10  C   UNL     1     -34.223   3.921   9.557  0.00  0.00    +0.284 C 
BRANCH  10  11
ATOM     11  C   UNL     1     -33.541   2.812  10.330  0.00  0.00    +0.079 A 
ATOM     12  C   UNL     1     -33.760   2.661  11.695  0.00  0.00    +0.027 A 
ATOM     13  C   UNL     1     -33.141   1.609  12.360  0.00  0.00    +0.012 A 
ATOM     14  C   UNL     1     -32.324   0.722  11.651  0.00  0.00    +0.000 A 
ATOM     15  C   UNL     1     -31.677  -0.356  12.282  0.00  0.00    +0.010 A 
ATOM     16  C   UNL     1     -30.870  -1.221  11.544  0.00  0.00    +0.001 A 
ATOM     17  C   UNL     1     -30.709  -1.014  10.179  0.00  0.00    +0.002 A 
ATOM     18  C   UNL     1     -31.356   0.059   9.557  0.00  0.00    +0.028 A 
ATOM     19  C   UNL     1     -32.164   0.937  10.266  0.00  0.00    +0.071 A 
ATOM     20  N   UNL     1     -32.764   1.954   9.620  0.00  0.00    -0.248 NA
ENDBRANCH  10  11
ENDBRANCH   9  10
ENDBRANCH   6   9
ENDBRANCH   2   3
BRANCH   1  22
ATOM     21  O   UNL     1     -31.064  11.845   6.365  0.00  0.00    -0.287 OA
ATOM     22  C   UNL     1     -30.336  10.867   6.504  0.00  0.00    +0.190 C 
BRANCH  22  23
ATOM     23  C   UNL     1     -28.894  10.970   6.166  0.00  0.00    +0.064 A 
ATOM     24  C   UNL     1     -28.061   9.930   6.610  0.00  0.00    +0.027 A 
ATOM     25  C   UNL     1     -26.684   9.944   6.345  0.00  0.00    +0.024 A 
ATOM     26  C   UNL     1     -26.147  11.027   5.633  0.00  0.00    +0.015 A 
ATOM     27  C   UNL     1     -26.964  12.077   5.204  0.00  0.00    +0.047 A 
ATOM     28  C   UNL     1     -28.333  12.051   5.475  0.00  0.00    +0.128 A 
BRANCH  25  29
ATOM     29  C   UNL     1     -25.823   8.858   6.796  0.00  0.00    +0.204 A 
ATOM     30  N   UNL     1     -26.286   7.791   7.533  0.00  0.00    -0.108 NA
ATOM     31  N   UNL     1     -25.246   7.004   7.767  0.00  0.00    -0.049 NA
ATOM     32  N   UNL     1     -24.220   7.620   7.171  0.00  0.00    -0.176 N 
ATOM     33  N   UNL     1     -24.502   8.776   6.556  0.00  0.00    -0.133 NA
ATOM     34  H   UNL     1     -23.282   7.229   7.186  0.00  0.00    +0.214 HD
ENDBRANCH  25  29
BRANCH  28  35
ATOM     35  O   UNL     1     -29.105  13.107   5.081  0.00  0.00    -0.506 OA
ATOM     36  H   UNL     1     -29.910  13.141   5.628  0.00  0.00    +0.292 HD
ENDBRANCH  28  35
ENDBRANCH  22  23
ENDBRANCH   1  22
TORSDOF 8
ENDMDL
MODEL 3
REMARK VINA RESULT:   -11.971      2.465     10.240
REMARK INTER + INTRA:         -18.384
REMARK INTER:                 -17.174
REMARK INTRA:                  -1.210
REMARK UNBOUND:                -1.164
REMARK  Name = CHEMBL11899
REMARK  8 active torsions:
REMARK  status: ('A' for Active; 'I' for Inactive)
REMARK    1  A    between atoms: C_2  and  C_3
REMARK    2  A    between atoms: C_2  and  C_23
REMARK    3  A    between atoms: C_4  and  C_5
REMARK    4  A    between atoms: C_8  and  O_9
REMARK    5  A    between atoms: O_9  and  C_10
REMARK    6  A    between atoms: C_10  and  C_11
REMARK    7  A    between atoms: C_25  and  C_26
REMARK    8  A    between atoms: C_33  and  O_34
REMARK                            x       y       z     vdW  Elec       q    Type
REMARK                         _______ _______ _______ _____ _____    ______ ____
ROOT
ATOM      1  C   UNL     1     -27.162   2.148  11.020  0.00  0.00    +0.052 C 
ATOM      2  C   UNL     1     -26.396   3.249  11.072  0.00  0.00    +0.012 C 
ENDROOT
BRANCH   2   3
ATOM      3  C   UNL     1     -26.192   4.159   9.938  0.00  0.00    -0.025 A 
ATOM      4  C   UNL     1     -27.272   4.440   9.093  0.00  0.00    +0.011 A 
ATOM      5  C   UNL     1     -27.133   5.322   8.013  0.00  0.00    +0.046 A 
ATOM      6  C   UNL     1     -25.909   5.943   7.770  0.00  0.00    +0.121 A 
ATOM      7  C   UNL     1     -24.834   5.680   8.620  0.00  0.00    +0.046 A 
ATOM      8  C   UNL     1     -24.972   4.800   9.699  0.00  0.00    +0.011 A 
BRANCH   6   9
ATOM      9  O   UNL     1     -25.634   6.818   6.757  0.00  0.00    -0.486 OA
BRANCH   9  10
ATOM     10  C   UNL     1     -25.046   8.069   7.122  0.00  0.00    +0.284 C 
BRANCH  10  11
ATOM     11  C   UNL     1     -25.959   9.210   6.725  0.00  0.00    +0.079 A 
ATOM     12  C   UNL     1     -25.489  10.252   5.934  0.00  0.00    +0.027 A 
ATOM     13  C   UNL     1     -26.370  11.262   5.563  0.00  0.00    +0.012 A 
ATOM     14  C   UNL     1     -27.704  11.209   5.980  0.00  0.00    +0.000 A 
ATOM     15  C   UNL     1     -28.630  12.209   5.631  0.00  0.00    +0.010 A 
ATOM     16  C   UNL     1     -29.952  12.124   6.063  0.00  0.00    +0.001 A 
ATOM     17  C   UNL     1     -30.353  11.045   6.841  0.00  0.00    +0.002 A 
ATOM     18  C   UNL     1     -29.428  10.054   7.185  0.00  0.00    +0.028 A 
ATOM     19  C   UNL     1     -28.105  10.112   6.770  0.00  0.00    +0.071 A 
ATOM     20  N   UNL     1     -27.254   9.132   7.128  0.00  0.00    -0.248 NA
ENDBRANCH  10  11
ENDBRANCH   9  10
ENDBRANCH   6   9
ENDBRANCH   2   3
BRANCH   1  22
ATOM     21  O   UNL     1     -26.350   0.875  12.859  0.00  0.00    -0.287 OA
ATOM     22  C   UNL     1     -27.317   1.300  12.233  0.00  0.00    +0.190 C 
BRANCH  22  23
ATOM     23  C   UNL     1     -28.690   1.031  12.730  0.00  0.00    +0.064 A 
ATOM     24  C   UNL     1     -29.744   1.234  11.825  0.00  0.00    +0.027 A 
ATOM     25  C   UNL     1     -31.076   1.014  12.207  0.00  0.00    +0.024 A 
ATOM     26  C   UNL     1     -31.339   0.596  13.519  0.00  0.00    +0.015 A 
ATOM     27  C   UNL     1     -30.298   0.410  14.434  0.00  0.00    +0.047 A 
ATOM     28  C   UNL     1     -28.977   0.633  14.041  0.00  0.00    +0.128 A 
BRANCH  25  29
ATOM     29  C   UNL     1     -32.168   1.213  11.264  0.00  0.00    +0.204 A 
ATOM     30  N   UNL     1     -32.043   0.980   9.912  0.00  0.00    -0.108 NA
ATOM     31  N   UNL     1     -33.216   1.261   9.363  0.00  0.00    -0.049 NA
ATOM     32  N   UNL     1     -33.983   1.643  10.389  0.00  0.00    -0.176 N 
ATOM     33  N   UNL     1     -33.398   1.645  11.594  0.00  0.00    -0.133 NA
ATOM     34  H   UNL     1     -34.953   1.917  10.257  0.00  0.00    +0.214 HD
ENDBRANCH  25  29
BRANCH  28  35
ATOM     35  O   UNL     1     -27.979   0.485  14.963  0.00  0.00    -0.506 OA
ATOM     36  H   UNL     1     -27.346  -0.185  14.650  0.00  0.00    +0.292 HD
ENDBRANCH  28  35
ENDBRANCH  22  23
ENDBRANCH   1  22
TORSDOF 8
ENDMDL
