MODEL 1
REMARK VINA RESULT:   -12.706      0.000      0.000
REMARK INTER + INTRA:         -18.972
REMARK INTER:                 -17.534
REMARK INTRA:                  -1.438
REMARK UNBOUND:                -1.438
REMARK  Name = CHEMBL12143
REMARK  7 active torsions:
REMARK  status: ('A' for Active; 'I' for Inactive)
REMARK    1  A    between atoms: C_2  and  C_3
REMARK    2  A    between atoms: C_2  and  C_23
REMARK    3  A    between atoms: C_4  and  C_5
REMARK    4  A    between atoms: C_9  and  C_10
REMARK    5  A    between atoms: C_11  and  C_12
REMARK    6  A    between atoms: C_28  and  C_29
REMARK    7  A    between atoms: C_34  and  O_35
REMARK                            x       y       z     vdW  Elec       q    Type
REMARK                         _______ _______ _______ _____ _____    ______ ____
ROOT
ATOM      1  C   UNL     1      -3.762 -12.843 -51.549  0.00  0.00    +0.052 C 
ATOM      2  C   UNL     1      -5.046 -12.541 -51.793  0.00  0.00    +0.012 C 
ENDROOT
BRANCH   2   3
ATOM      3  C   UNL     1      -5.926 -13.363 -52.637  0.00  0.00    -0.024 A 
ATOM      4  C   UNL     1      -7.303 -13.460 -52.407  0.00  0.00    +0.008 A 
ATOM      5  C   UNL     1      -8.098 -14.273 -53.217  0.00  0.00    +0.001 A 
ATOM      6  C   UNL     1      -7.522 -15.008 -54.253  0.00  0.00    +0.008 A 
ATOM      7  C   UNL     1      -6.143 -14.950 -54.482  0.00  0.00    -0.024 A 
ATOM      8  C   UNL     1      -5.356 -14.118 -53.673  0.00  0.00    +0.016 A 
BRANCH   7   9
ATOM      9  C   UNL     1      -5.500 -15.692 -55.578  0.00  0.00    +0.010 C 
ATOM     10  C   UNL     1      -4.760 -15.107 -56.535  0.00  0.00    +0.028 C 
BRANCH  10  11
ATOM     11  C   UNL     1      -4.088 -15.797 -57.641  0.00  0.00    +0.065 A 
ATOM     12  C   UNL     1      -3.989 -15.269 -58.922  0.00  0.00    +0.028 A 
ATOM     13  C   UNL     1      -3.303 -15.996 -59.892  0.00  0.00    +0.012 A 
ATOM     14  C   UNL     1      -2.726 -17.225 -59.560  0.00  0.00    +0.000 A 
ATOM     15  C   UNL     1      -2.024 -17.994 -60.506  0.00  0.00    +0.010 A 
ATOM     16  C   UNL     1      -1.458 -19.213 -60.140  0.00  0.00    +0.001 A 
ATOM     17  C   UNL     1      -1.588 -19.666 -58.833  0.00  0.00    +0.002 A 
ATOM     18  C   UNL     1      -2.285 -18.896 -57.896  0.00  0.00    +0.028 A 
ATOM     19  C   UNL     1      -2.862 -17.679 -58.233  0.00  0.00    +0.072 A 
ATOM     20  N   UNL     1      -3.522 -16.977 -57.295  0.00  0.00    -0.247 NA
ENDBRANCH  10  11
ENDBRANCH   7   9
ENDBRANCH   2   3
BRANCH   1  22
ATOM     21  O   UNL     1      -2.580 -10.869 -51.059  0.00  0.00    -0.287 OA
ATOM     22  C   UNL     1      -2.838 -12.021 -50.722  0.00  0.00    +0.190 C 
BRANCH  22  23
ATOM     23  C   UNL     1      -2.272 -12.547 -49.463  0.00  0.00    +0.065 A 
ATOM     24  C   UNL     1      -3.175 -13.055 -48.523  0.00  0.00    +0.035 A 
ATOM     25  C   UNL     1      -2.701 -13.545 -47.313  0.00  0.00    +0.043 A 
ATOM     26 CL   UNL     1      -3.805 -14.189 -46.161  0.00  0.00    -0.083 Cl
ATOM     27  C   UNL     1      -1.337 -13.519 -47.021  0.00  0.00    +0.035 A 
ATOM     28  C   UNL     1      -0.418 -12.987 -47.942  0.00  0.00    +0.066 A 
ATOM     29  C   UNL     1      -0.900 -12.493 -49.170  0.00  0.00    +0.138 A 
BRANCH  28  30
ATOM     30  C   UNL     1       0.998 -12.955 -47.594  0.00  0.00    +0.208 A 
ATOM     31  N   UNL     1       1.979 -13.545 -48.355  0.00  0.00    -0.108 NA
ATOM     32  N   UNL     1       3.129 -13.322 -47.738  0.00  0.00    -0.049 NA
ATOM     33  N   UNL     1       2.802 -12.623 -46.648  0.00  0.00    -0.176 N 
ATOM     34  N   UNL     1       1.493 -12.346 -46.497  0.00  0.00    -0.133 NA
ATOM     35  H   UNL     1       3.506 -12.319 -45.980  0.00  0.00    +0.214 HD
ENDBRANCH  28  30
BRANCH  29  36
ATOM     36  O   UNL     1      -0.060 -11.932 -50.099  0.00  0.00    -0.505 OA
ATOM     37  H   UNL     1      -0.510 -11.160 -50.508  0.00  0.00    +0.292 HD
ENDBRANCH  29  36
ENDBRANCH  22  23
ENDBRANCH   1  22
TORSDOF 7
ENDMDL
MODEL 2
REMARK VINA RESULT:   -11.926      5.632      8.685
REMARK INTER + INTRA:         -17.896
REMARK INTER:                 -16.652
REMARK INTRA:                  -1.244
REMARK UNBOUND:                -1.438
REMARK  Name = CHEMBL12143
REMARK  7 active torsions:
REMARK  status: ('A' for Active; 'I' for Inactive)
REMARK    1  A    between atoms: C_2  and  C_3
REMARK    2  A    between atoms: C_2  and  C_23
REMARK    3  A    between atoms: C_4  and  C_5
REMARK    4  A    between atoms: C_9  and  C_10
REMARK    5  A    between atoms: C_11  and  C_12
REMARK    6  A    between atoms: C_28  and  C_29
REMARK    7  A    between atoms: C_34  and  O_35
REMARK                            x       y       z     vdW  Elec       q    Type
REMARK                         _______ _______ _______ _____ _____    ______ ____
ROOT
ATOM      1  C   UNL     1      -4.834 -15.898 -56.904  0.00  0.00    +0.052 C 
ATOM      2  C   UNL     1      -3.922 -15.757 -57.877  0.00  0.00    +0.012 C 
ENDROOT
BRANCH   2   3
ATOM      3  C   UNL     1      -2.975 -16.815 -58.260  0.00  0.00    -0.024 A 
ATOM      4  C   UNL     1      -2.893 -18.029 -57.571  0.00  0.00    +0.008 A 
ATOM      5  C   UNL     1      -1.962 -18.997 -57.952  0.00  0.00    +0.001 A 
ATOM      6  C   UNL     1      -1.093 -18.752 -59.015  0.00  0.00    +0.008 A 
ATOM      7  C   UNL     1      -1.134 -17.532 -59.699  0.00  0.00    -0.024 A 
ATOM      8  C   UNL     1      -2.085 -16.574 -59.319  0.00  0.00    +0.016 A 
BRANCH   7   9
ATOM      9  C   UNL     1      -0.251 -17.245 -60.840  0.00  0.00    +0.010 C 
ATOM     10  C   UNL     1       1.090 -17.280 -60.767  0.00  0.00    +0.028 C 
BRANCH  10  11
ATOM     11  C   UNL     1       2.017 -17.015 -61.873  0.00  0.00    +0.065 A 
ATOM     12  C   UNL     1       1.638 -17.038 -63.209  0.00  0.00    +0.028 A 
ATOM     13  C   UNL     1       2.594 -16.743 -64.178  0.00  0.00    +0.012 A 
ATOM     14  C   UNL     1       3.899 -16.424 -63.792  0.00  0.00    +0.000 A 
ATOM     15  C   UNL     1       4.897 -16.119 -64.736  0.00  0.00    +0.010 A 
ATOM     16  C   UNL     1       6.187 -15.801 -64.316  0.00  0.00    +0.001 A 
ATOM     17  C   UNL     1       6.483 -15.785 -62.958  0.00  0.00    +0.002 A 
ATOM     18  C   UNL     1       5.486 -16.087 -62.024  0.00  0.00    +0.028 A 
ATOM     19  C   UNL     1       4.193 -16.409 -62.414  0.00  0.00    +0.072 A 
ATOM     20  N   UNL     1       3.270 -16.692 -61.477  0.00  0.00    -0.247 NA
ENDBRANCH  10  11
ENDBRANCH   7   9
ENDBRANCH   2   3
BRANCH   1  22
ATOM     21  O   UNL     1      -6.521 -14.309 -57.305  0.00  0.00    -0.287 OA
ATOM     22  C   UNL     1      -5.790 -14.841 -56.475  0.00  0.00    +0.190 C 
BRANCH  22  23
ATOM     23  C   UNL     1      -5.919 -14.463 -55.054  0.00  0.00    +0.065 A 
ATOM     24  C   UNL     1      -4.736 -14.200 -54.356  0.00  0.00    +0.035 A 
ATOM     25  C   UNL     1      -4.795 -13.858 -53.010  0.00  0.00    +0.043 A 
ATOM     26 CL   UNL     1      -3.344 -13.515 -52.151  0.00  0.00    -0.083 Cl
ATOM     27  C   UNL     1      -6.021 -13.792 -52.347  0.00  0.00    +0.035 A 
ATOM     28  C   UNL     1      -7.218 -14.079 -53.027  0.00  0.00    +0.066 A 
ATOM     29  C   UNL     1      -7.156 -14.423 -54.391  0.00  0.00    +0.138 A 
BRANCH  28  30
ATOM     30  C   UNL     1      -8.479 -14.022 -52.296  0.00  0.00    +0.208 A 
ATOM     31  N   UNL     1      -8.606 -13.466 -51.046  0.00  0.00    -0.108 NA
ATOM     32  N   UNL     1      -9.876 -13.596 -50.695  0.00  0.00    -0.049 NA
ATOM     33  N   UNL     1     -10.454 -14.216 -51.727  0.00  0.00    -0.176 N 
ATOM     34  N   UNL     1      -9.648 -14.504 -52.767  0.00  0.00    -0.133 NA
ATOM     35  H   UNL     1     -11.443 -14.452 -51.721  0.00  0.00    +0.214 HD
ENDBRANCH  28  30
BRANCH  29  36
ATOM     36  O   UNL     1      -8.283 -14.746 -55.104  0.00  0.00    -0.505 OA
ATOM     37  H   UNL     1      -8.972 -14.067 -54.933  0.00  0.00    +0.292 HD
ENDBRANCH  29  36
ENDBRANCH  22  23
ENDBRANCH   1  22
TORSDOF 7
ENDMDL
MODEL 3
REMARK VINA RESULT:   -10.763      5.057      7.995
REMARK INTER + INTRA:         -16.291
REMARK INTER:                 -15.481
REMARK INTRA:                  -0.810
REMARK UNBOUND:                -1.438
REMARK  Name = CHEMBL12143
REMARK  7 active torsions:
REMARK  status: ('A' for Active; 'I' for Inactive)
REMARK    1  A    between atoms: C_2  and  C_3
REMARK    2  A    between atoms: C_2  and  C_23
REMARK    3  A    between atoms: C_4  and  C_5
REMARK    4  A    between atoms: C_9  and  C_10
REMARK    5  A    between atoms: C_11  and  C_12
REMARK    6  A    between atoms: C_28  and  C_29
REMARK    7  A    between atoms: C_34  and  O_35
REMARK                            x       y       z     vdW  Elec       q    Type
REMARK                         _______ _______ _______ _____ _____    ______ ____
ROOT
ATOM      1  C   UNL     1      -5.325 -15.868 -57.333  0.00  0.00    +0.052 C 
ATOM      2  C   UNL     1      -4.191 -15.712 -58.032  0.00  0.00    +0.012 C 
ENDROOT
BRANCH   2   3
ATOM      3  C   UNL     1      -3.186 -16.773 -58.195  0.00  0.00    -0.024 A 
ATOM      4  C   UNL     1      -3.289 -18.006 -57.541  0.00  0.00    +0.008 A 
ATOM      5  C   UNL     1      -2.298 -18.976 -57.703  0.00  0.00    +0.001 A 
ATOM      6  C   UNL     1      -1.188 -18.716 -58.506  0.00  0.00    +0.008 A 
ATOM      7  C   UNL     1      -1.047 -17.479 -59.144  0.00  0.00    -0.024 A 
ATOM      8  C   UNL     1      -2.056 -16.518 -58.989  0.00  0.00    +0.016 A 
BRANCH   7   9
ATOM      9  C   UNL     1       0.097 -17.175 -60.018  0.00  0.00    +0.010 C 
ATOM     10  C   UNL     1       0.114 -17.435 -61.335  0.00  0.00    +0.028 C 
BRANCH  10  11
ATOM     11  C   UNL     1       1.219 -17.143 -62.254  0.00  0.00    +0.065 A 
ATOM     12  C   UNL     1       1.084 -17.143 -63.636  0.00  0.00    +0.028 A 
ATOM     13  C   UNL     1       2.193 -16.823 -64.415  0.00  0.00    +0.012 A 
ATOM     14  C   UNL     1       3.406 -16.503 -63.799  0.00  0.00    +0.000 A 
ATOM     15  C   UNL     1       4.553 -16.173 -64.544  0.00  0.00    +0.010 A 
ATOM     16  C   UNL     1       5.744 -15.856 -63.897  0.00  0.00    +0.001 A 
ATOM     17  C   UNL     1       5.795 -15.864 -62.508  0.00  0.00    +0.002 A 
ATOM     18  C   UNL     1       4.651 -16.190 -61.771  0.00  0.00    +0.028 A 
ATOM     19  C   UNL     1       3.451 -16.513 -62.390  0.00  0.00    +0.072 A 
ATOM     20  N   UNL     1       2.380 -16.819 -61.637  0.00  0.00    -0.247 NA
ENDBRANCH  10  11
ENDBRANCH   7   9
ENDBRANCH   2   3
BRANCH   1  22
ATOM     21  O   UNL     1      -6.859 -14.259 -58.101  0.00  0.00    -0.287 OA
ATOM     22  C   UNL     1      -6.351 -14.810 -57.129  0.00  0.00    +0.190 C 
BRANCH  22  23
ATOM     23  C   UNL     1      -6.816 -14.452 -55.774  0.00  0.00    +0.065 A 
ATOM     24  C   UNL     1      -8.199 -14.378 -55.576  0.00  0.00    +0.035 A 
ATOM     25  C   UNL     1      -8.695 -14.027 -54.327  0.00  0.00    +0.043 A 
ATOM     26 CL   UNL     1     -10.395 -13.952 -54.072  0.00  0.00    -0.083 Cl
ATOM     27  C   UNL     1      -7.827 -13.731 -53.275  0.00  0.00    +0.035 A 
ATOM     28  C   UNL     1      -6.434 -13.774 -53.464  0.00  0.00    +0.066 A 
ATOM     29  C   UNL     1      -5.934 -14.134 -54.731  0.00  0.00    +0.138 A 
BRANCH  28  30
ATOM     30  C   UNL     1      -5.557 -13.437 -52.349  0.00  0.00    +0.208 A 
ATOM     31  N   UNL     1      -4.255 -13.024 -52.507  0.00  0.00    -0.108 NA
ATOM     32  N   UNL     1      -3.769 -12.815 -51.293  0.00  0.00    -0.049 NA
ATOM     33  N   UNL     1      -4.776 -13.108 -50.466  0.00  0.00    -0.176 N 
ATOM     34  N   UNL     1      -5.926 -13.492 -51.052  0.00  0.00    -0.133 NA
ATOM     35  H   UNL     1      -4.673 -13.040 -49.457  0.00  0.00    +0.214 HD
ENDBRANCH  28  30
BRANCH  29  36
ATOM     36  O   UNL     1      -4.586 -14.163 -54.990  0.00  0.00    -0.505 OA
ATOM     37  H   UNL     1      -4.193 -14.942 -54.539  0.00  0.00    +0.292 HD
ENDBRANCH  29  36
ENDBRANCH  22  23
ENDBRANCH   1  22
TORSDOF 7
ENDMDL
