MODEL 1
REMARK VINA RESULT:   -12.704      0.000      0.000
REMARK INTER + INTRA:         -18.966
REMARK INTER:                 -17.532
REMARK INTRA:                  -1.435
REMARK UNBOUND:                -1.435
REMARK  Name = CHEMBL12143
REMARK  7 active torsions:
REMARK  status: ('A' for Active; 'I' for Inactive)
REMARK    1  A    between atoms: C_2  and  C_3
REMARK    2  A    between atoms: C_2  and  C_23
REMARK    3  A    between atoms: C_4  and  C_5
REMARK    4  A    between atoms: C_9  and  C_10
REMARK    5  A    between atoms: C_11  and  C_12
REMARK    6  A    between atoms: C_28  and  C_29
REMARK    7  A    between atoms: C_34  and  O_35
REMARK                            x       y       z     vdW  Elec       q    Type
REMARK                         _______ _______ _______ _____ _____    ______ ____
ROOT
ATOM      1  C   UNL     1      -3.740 -12.812 -51.664  0.00  0.00    +0.052 C 
ATOM      2  C   UNL     1      -5.036 -12.518 -51.855  0.00  0.00    +0.012 C 
ENDROOT
BRANCH   2   3
ATOM      3  C   UNL     1      -5.931 -13.316 -52.706  0.00  0.00    -0.024 A 
ATOM      4  C   UNL     1      -7.314 -13.362 -52.498  0.00  0.00    +0.008 A 
ATOM      5  C   UNL     1      -8.125 -14.153 -53.314  0.00  0.00    +0.001 A 
ATOM      6  C   UNL     1      -7.559 -14.917 -54.334  0.00  0.00    +0.008 A 
ATOM      7  C   UNL     1      -6.175 -14.911 -54.541  0.00  0.00    -0.024 A 
ATOM      8  C   UNL     1      -5.371 -14.100 -53.727  0.00  0.00    +0.016 A 
BRANCH   7   9
ATOM      9  C   UNL     1      -5.542 -15.685 -55.620  0.00  0.00    +0.010 C 
ATOM     10  C   UNL     1      -4.868 -15.124 -56.638  0.00  0.00    +0.028 C 
BRANCH  10  11
ATOM     11  C   UNL     1      -4.209 -15.845 -57.732  0.00  0.00    +0.065 A 
ATOM     12  C   UNL     1      -4.052 -15.320 -59.008  0.00  0.00    +0.028 A 
ATOM     13  C   UNL     1      -3.384 -16.080 -59.966  0.00  0.00    +0.012 A 
ATOM     14  C   UNL     1      -2.881 -17.339 -59.625  0.00  0.00    +0.000 A 
ATOM     15  C   UNL     1      -2.200 -18.142 -60.559  0.00  0.00    +0.010 A 
ATOM     16  C   UNL     1      -1.708 -19.390 -60.184  0.00  0.00    +0.001 A 
ATOM     17  C   UNL     1      -1.892 -19.839 -58.882  0.00  0.00    +0.002 A 
ATOM     18  C   UNL     1      -2.569 -19.036 -57.958  0.00  0.00    +0.028 A 
ATOM     19  C   UNL     1      -3.071 -17.788 -58.304  0.00  0.00    +0.072 A 
ATOM     20  N   UNL     1      -3.714 -17.055 -57.378  0.00  0.00    -0.247 NA
ENDBRANCH  10  11
ENDBRANCH   7   9
ENDBRANCH   2   3
BRANCH   1  22
ATOM     21  O   UNL     1      -2.573 -10.844 -51.123  0.00  0.00    -0.287 OA
ATOM     22  C   UNL     1      -2.802 -12.014 -50.830  0.00  0.00    +0.190 C 
BRANCH  22  23
ATOM     23  C   UNL     1      -2.185 -12.586 -49.617  0.00  0.00    +0.065 A 
ATOM     24  C   UNL     1      -3.053 -13.050 -48.621  0.00  0.00    +0.035 A 
ATOM     25  C   UNL     1      -2.529 -13.580 -47.449  0.00  0.00    +0.043 A 
ATOM     26 CL   UNL     1      -3.591 -14.168 -46.229  0.00  0.00    -0.083 Cl
ATOM     27  C   UNL     1      -1.149 -13.640 -47.250  0.00  0.00    +0.035 A 
ATOM     28  C   UNL     1      -0.264 -13.155 -48.228  0.00  0.00    +0.066 A 
ATOM     29  C   UNL     1      -0.797 -12.619 -49.417  0.00  0.00    +0.138 A 
BRANCH  28  30
ATOM     30  C   UNL     1       1.171 -13.212 -47.976  0.00  0.00    +0.208 A 
ATOM     31  N   UNL     1       2.050 -13.920 -48.761  0.00  0.00    -0.108 NA
ATOM     32  N   UNL     1       3.255 -13.752 -48.236  0.00  0.00    -0.049 NA
ATOM     33  N   UNL     1       3.058 -12.966 -47.175  0.00  0.00    -0.176 N 
ATOM     34  N   UNL     1       1.786 -12.579 -46.956  0.00  0.00    -0.133 NA
ATOM     35  H   UNL     1       3.827 -12.679 -46.575  0.00  0.00    +0.214 HD
ENDBRANCH  28  30
BRANCH  29  36
ATOM     36  O   UNL     1       0.011 -12.099 -50.397  0.00  0.00    -0.505 OA
ATOM     37  H   UNL     1       0.546 -12.826 -50.786  0.00  0.00    +0.292 HD
ENDBRANCH  29  36
ENDBRANCH  22  23
ENDBRANCH   1  22
TORSDOF 7
ENDMDL
MODEL 2
REMARK VINA RESULT:   -11.112      6.349     10.249
REMARK INTER + INTRA:         -16.769
REMARK INTER:                 -16.131
REMARK INTRA:                  -0.638
REMARK UNBOUND:                -1.435
REMARK  Name = CHEMBL12143
REMARK  7 active torsions:
REMARK  status: ('A' for Active; 'I' for Inactive)
REMARK    1  A    between atoms: C_2  and  C_3
REMARK    2  A    between atoms: C_2  and  C_23
REMARK    3  A    between atoms: C_4  and  C_5
REMARK    4  A    between atoms: C_9  and  C_10
REMARK    5  A    between atoms: C_11  and  C_12
REMARK    6  A    between atoms: C_28  and  C_29
REMARK    7  A    between atoms: C_34  and  O_35
REMARK                            x       y       z     vdW  Elec       q    Type
REMARK                         _______ _______ _______ _____ _____    ______ ____
ROOT
ATOM      1  C   UNL     1       1.985 -16.407 -62.080  0.00  0.00    +0.052 C 
ATOM      2  C   UNL     1       1.318 -17.546 -62.321  0.00  0.00    +0.012 C 
ENDROOT
BRANCH   2   3
ATOM      3  C   UNL     1      -0.148 -17.625 -62.401  0.00  0.00    -0.024 A 
ATOM      4  C   UNL     1      -0.818 -17.880 -63.602  0.00  0.00    +0.008 A 
ATOM      5  C   UNL     1      -2.213 -17.921 -63.638  0.00  0.00    +0.001 A 
ATOM      6  C   UNL     1      -2.951 -17.692 -62.477  0.00  0.00    +0.008 A 
ATOM      7  C   UNL     1      -2.304 -17.405 -61.270  0.00  0.00    -0.024 A 
ATOM      8  C   UNL     1      -0.902 -17.382 -61.242  0.00  0.00    +0.016 A 
BRANCH   7   9
ATOM      9  C   UNL     1      -3.045 -17.181 -60.020  0.00  0.00    +0.010 C 
ATOM     10  C   UNL     1      -3.411 -15.964 -59.582  0.00  0.00    +0.028 C 
BRANCH  10  11
ATOM     11  C   UNL     1      -4.159 -15.684 -58.352  0.00  0.00    +0.065 A 
ATOM     12  C   UNL     1      -3.579 -15.673 -57.091  0.00  0.00    +0.028 A 
ATOM     13  C   UNL     1      -4.376 -15.366 -55.991  0.00  0.00    +0.012 A 
ATOM     14  C   UNL     1      -5.730 -15.068 -56.177  0.00  0.00    +0.000 A 
ATOM     15  C   UNL     1      -6.574 -14.752 -55.097  0.00  0.00    +0.010 A 
ATOM     16  C   UNL     1      -7.917 -14.457 -55.318  0.00  0.00    +0.001 A 
ATOM     17  C   UNL     1      -8.420 -14.475 -56.614  0.00  0.00    +0.002 A 
ATOM     18  C   UNL     1      -7.576 -14.787 -57.684  0.00  0.00    +0.028 A 
ATOM     19  C   UNL     1      -6.233 -15.087 -57.492  0.00  0.00    +0.072 A 
ATOM     20  N   UNL     1      -5.463 -15.382 -58.555  0.00  0.00    -0.247 NA
ENDBRANCH  10  11
ENDBRANCH   7   9
ENDBRANCH   2   3
BRANCH   1  22
ATOM     21  O   UNL     1       4.151 -16.267 -62.986  0.00  0.00    -0.287 OA
ATOM     22  C   UNL     1       3.464 -16.295 -61.968  0.00  0.00    +0.190 C 
BRANCH  22  23
ATOM     23  C   UNL     1       4.120 -16.155 -60.653  0.00  0.00    +0.065 A 
ATOM     24  C   UNL     1       5.470 -16.514 -60.575  0.00  0.00    +0.035 A 
ATOM     25  C   UNL     1       6.135 -16.422 -59.358  0.00  0.00    +0.043 A 
ATOM     26 CL   UNL     1       7.800 -16.845 -59.260  0.00  0.00    -0.083 Cl
ATOM     27  C   UNL     1       5.464 -15.991 -58.213  0.00  0.00    +0.035 A 
ATOM     28  C   UNL     1       4.101 -15.652 -58.268  0.00  0.00    +0.066 A 
ATOM     29  C   UNL     1       3.430 -15.743 -59.503  0.00  0.00    +0.138 A 
BRANCH  28  30
ATOM     30  C   UNL     1       3.426 -15.227 -57.046  0.00  0.00    +0.208 A 
ATOM     31  N   UNL     1       2.326 -14.404 -57.036  0.00  0.00    -0.108 NA
ATOM     32  N   UNL     1       1.990 -14.228 -55.767  0.00  0.00    -0.049 NA
ATOM     33  N   UNL     1       2.886 -14.936 -55.075  0.00  0.00    -0.176 N 
ATOM     34  N   UNL     1       3.806 -15.595 -55.805  0.00  0.00    -0.133 NA
ATOM     35  H   UNL     1       2.867 -14.972 -54.059  0.00  0.00    +0.214 HD
ENDBRANCH  28  30
BRANCH  29  36
ATOM     36  O   UNL     1       2.092 -15.458 -59.617  0.00  0.00    -0.505 OA
ATOM     37  H   UNL     1       1.686 -15.475 -58.723  0.00  0.00    +0.292 HD
ENDBRANCH  29  36
ENDBRANCH  22  23
ENDBRANCH   1  22
TORSDOF 7
ENDMDL
MODEL 3
REMARK VINA RESULT:   -10.618      0.906      1.595
REMARK INTER + INTRA:         -16.087
REMARK INTER:                 -14.872
REMARK INTRA:                  -1.216
REMARK UNBOUND:                -1.435
REMARK  Name = CHEMBL12143
REMARK  7 active torsions:
REMARK  status: ('A' for Active; 'I' for Inactive)
REMARK    1  A    between atoms: C_2  and  C_3
REMARK    2  A    between atoms: C_2  and  C_23
REMARK    3  A    between atoms: C_4  and  C_5
REMARK    4  A    between atoms: C_9  and  C_10
REMARK    5  A    between atoms: C_11  and  C_12
REMARK    6  A    between atoms: C_28  and  C_29
REMARK    7  A    between atoms: C_34  and  O_35
REMARK                            x       y       z     vdW  Elec       q    Type
REMARK                         _______ _______ _______ _____ _____    ______ ____
ROOT
ATOM      1  C   UNL     1      -3.826 -12.750 -51.558  0.00  0.00    +0.052 C 
ATOM      2  C   UNL     1      -4.909 -12.276 -52.193  0.00  0.00    +0.012 C 
ENDROOT
BRANCH   2   3
ATOM      3  C   UNL     1      -5.761 -13.096 -53.066  0.00  0.00    -0.024 A 
ATOM      4  C   UNL     1      -7.159 -13.033 -53.020  0.00  0.00    +0.008 A 
ATOM      5  C   UNL     1      -7.930 -13.848 -53.850  0.00  0.00    +0.001 A 
ATOM      6  C   UNL     1      -7.313 -14.747 -54.720  0.00  0.00    +0.008 A 
ATOM      7  C   UNL     1      -5.918 -14.850 -54.761  0.00  0.00    -0.024 A 
ATOM      8  C   UNL     1      -5.152 -14.014 -53.936  0.00  0.00    +0.016 A 
BRANCH   7   9
ATOM      9  C   UNL     1      -5.229 -15.768 -55.681  0.00  0.00    +0.010 C 
ATOM     10  C   UNL     1      -4.653 -15.374 -56.829  0.00  0.00    +0.028 C 
BRANCH  10  11
ATOM     11  C   UNL     1      -3.944 -16.241 -57.776  0.00  0.00    +0.065 A 
ATOM     12  C   UNL     1      -3.270 -17.394 -57.397  0.00  0.00    +0.028 A 
ATOM     13  C   UNL     1      -2.653 -18.161 -58.383  0.00  0.00    +0.012 A 
ATOM     14  C   UNL     1      -2.731 -17.764 -59.721  0.00  0.00    +0.000 A 
ATOM     15  C   UNL     1      -2.124 -18.507 -60.751  0.00  0.00    +0.010 A 
ATOM     16  C   UNL     1      -2.225 -18.084 -62.074  0.00  0.00    +0.001 A 
ATOM     17  C   UNL     1      -2.930 -16.925 -62.374  0.00  0.00    +0.002 A 
ATOM     18  C   UNL     1      -3.533 -16.192 -61.347  0.00  0.00    +0.028 A 
ATOM     19  C   UNL     1      -3.448 -16.588 -60.018  0.00  0.00    +0.072 A 
ATOM     20  N   UNL     1      -4.046 -15.848 -59.067  0.00  0.00    -0.247 NA
ENDBRANCH  10  11
ENDBRANCH   7   9
ENDBRANCH   2   3
BRANCH   1  22
ATOM     21  O   UNL     1      -2.941 -10.718 -50.772  0.00  0.00    -0.287 OA
ATOM     22  C   UNL     1      -2.929 -11.943 -50.688  0.00  0.00    +0.190 C 
BRANCH  22  23
ATOM     23  C   UNL     1      -2.066 -12.587 -49.678  0.00  0.00    +0.065 A 
ATOM     24  C   UNL     1      -2.684 -13.029 -48.503  0.00  0.00    +0.035 A 
ATOM     25  C   UNL     1      -1.919 -13.625 -47.508  0.00  0.00    +0.043 A 
ATOM     26 CL   UNL     1      -2.675 -14.186 -46.069  0.00  0.00    -0.083 Cl
ATOM     27  C   UNL     1      -0.539 -13.771 -47.665  0.00  0.00    +0.035 A 
ATOM     28  C   UNL     1       0.101 -13.309 -48.827  0.00  0.00    +0.066 A 
ATOM     29  C   UNL     1      -0.677 -12.707 -49.836  0.00  0.00    +0.138 A 
BRANCH  28  30
ATOM     30  C   UNL     1       1.547 -13.458 -48.947  0.00  0.00    +0.208 A 
ATOM     31  N   UNL     1       2.223 -13.354 -50.139  0.00  0.00    -0.108 NA
ATOM     32  N   UNL     1       3.506 -13.550 -49.872  0.00  0.00    -0.049 NA
ATOM     33  N   UNL     1       3.551 -13.762 -48.554  0.00  0.00    -0.176 N 
ATOM     34  N   UNL     1       2.370 -13.709 -47.908  0.00  0.00    -0.133 NA
ATOM     35  H   UNL     1       4.428 -13.950 -48.074  0.00  0.00    +0.214 HD
ENDBRANCH  28  30
BRANCH  29  36
ATOM     36  O   UNL     1      -0.109 -12.206 -50.980  0.00  0.00    -0.505 OA
ATOM     37  H   UNL     1      -0.790 -11.702 -51.478  0.00  0.00    +0.292 HD
ENDBRANCH  29  36
ENDBRANCH  22  23
ENDBRANCH   1  22
TORSDOF 7
ENDMDL
