MODEL 1
REMARK VINA RESULT:   -13.251      0.000      0.000
REMARK INTER + INTRA:         -19.658
REMARK INTER:                 -18.287
REMARK INTRA:                  -1.371
REMARK UNBOUND:                -1.371
REMARK  Name = CHEMBL12143
REMARK  7 active torsions:
REMARK  status: ('A' for Active; 'I' for Inactive)
REMARK    1  A    between atoms: C_2  and  C_3
REMARK    2  A    between atoms: C_2  and  C_23
REMARK    3  A    between atoms: C_4  and  C_5
REMARK    4  A    between atoms: C_9  and  C_10
REMARK    5  A    between atoms: C_11  and  C_12
REMARK    6  A    between atoms: C_28  and  C_29
REMARK    7  A    between atoms: C_34  and  O_35
REMARK                            x       y       z     vdW  Elec       q    Type
REMARK                         _______ _______ _______ _____ _____    ______ ____
ROOT
ATOM      1  C   UNL     1     -32.346   1.902   9.926  0.00  0.00    +0.052 C 
ATOM      2  C   UNL     1     -32.083   3.214   9.823  0.00  0.00    +0.012 C 
ENDROOT
BRANCH   2   3
ATOM      3  C   UNL     1     -33.048   4.196   9.307  0.00  0.00    -0.024 A 
ATOM      4  C   UNL     1     -34.413   3.910   9.187  0.00  0.00    +0.008 A 
ATOM      5  C   UNL     1     -35.291   4.863   8.668  0.00  0.00    +0.001 A 
ATOM      6  C   UNL     1     -34.810   6.103   8.248  0.00  0.00    +0.008 A 
ATOM      7  C   UNL     1     -33.445   6.400   8.329  0.00  0.00    -0.024 A 
ATOM      8  C   UNL     1     -32.574   5.442   8.868  0.00  0.00    +0.016 A 
BRANCH   7   9
ATOM      9  C   UNL     1     -32.903   7.704   7.918  0.00  0.00    +0.010 C 
ATOM     10  C   UNL     1     -31.655   7.874   7.450  0.00  0.00    +0.028 C 
BRANCH  10  11
ATOM     11  C   UNL     1     -31.067   9.146   7.016  0.00  0.00    +0.065 A 
ATOM     12  C   UNL     1     -31.768  10.344   6.998  0.00  0.00    +0.028 A 
ATOM     13  C   UNL     1     -31.103  11.500   6.595  0.00  0.00    +0.012 A 
ATOM     14  C   UNL     1     -29.756  11.434   6.228  0.00  0.00    +0.000 A 
ATOM     15  C   UNL     1     -29.044  12.575   5.814  0.00  0.00    +0.010 A 
ATOM     16  C   UNL     1     -27.701  12.474   5.459  0.00  0.00    +0.001 A 
ATOM     17  C   UNL     1     -27.065  11.239   5.518  0.00  0.00    +0.002 A 
ATOM     18  C   UNL     1     -27.777  10.109   5.932  0.00  0.00    +0.028 A 
ATOM     19  C   UNL     1     -29.118  10.180   6.290  0.00  0.00    +0.072 A 
ATOM     20  N   UNL     1     -29.757   9.063   6.682  0.00  0.00    -0.247 NA
ENDBRANCH  10  11
ENDBRANCH   7   9
ENDBRANCH   2   3
BRANCH   1  22
ATOM     21  O   UNL     1     -31.329  -0.218   9.872  0.00  0.00    -0.287 OA
ATOM     22  C   UNL     1     -31.385   0.879  10.420  0.00  0.00    +0.190 C 
BRANCH  22  23
ATOM     23  C   UNL     1     -30.451   1.181  11.523  0.00  0.00    +0.065 A 
ATOM     24  C   UNL     1     -30.898   0.922  12.823  0.00  0.00    +0.035 A 
ATOM     25  C   UNL     1     -30.069   1.205  13.902  0.00  0.00    +0.043 A 
ATOM     26 CL   UNL     1     -30.606   0.871  15.502  0.00  0.00    -0.083 Cl
ATOM     27  C   UNL     1     -28.804   1.760  13.700  0.00  0.00    +0.035 A 
ATOM     28  C   UNL     1     -28.351   2.051  12.402  0.00  0.00    +0.066 A 
ATOM     29  C   UNL     1     -29.191   1.761  11.310  0.00  0.00    +0.138 A 
BRANCH  28  30
ATOM     30  C   UNL     1     -27.033   2.652  12.230  0.00  0.00    +0.208 A 
ATOM     31  N   UNL     1     -26.078   2.152  11.377  0.00  0.00    -0.108 NA
ATOM     32  N   UNL     1     -25.017   2.939  11.484  0.00  0.00    -0.049 NA
ATOM     33  N   UNL     1     -25.368   3.863  12.383  0.00  0.00    -0.176 N 
ATOM     34  N   UNL     1     -26.613   3.755  12.883  0.00  0.00    -0.133 NA
ATOM     35  H   UNL     1     -24.727   4.601  12.664  0.00  0.00    +0.214 HD
ENDBRANCH  28  30
BRANCH  29  36
ATOM     36  O   UNL     1     -28.821   2.051  10.020  0.00  0.00    -0.505 OA
ATOM     37  H   UNL     1     -29.224   1.388   9.418  0.00  0.00    +0.292 HD
ENDBRANCH  29  36
ENDBRANCH  22  23
ENDBRANCH   1  22
TORSDOF 7
ENDMDL
MODEL 2
REMARK VINA RESULT:   -12.463      4.607      9.463
REMARK INTER + INTRA:         -18.570
REMARK INTER:                 -17.250
REMARK INTRA:                  -1.320
REMARK UNBOUND:                -1.371
REMARK  Name = CHEMBL12143
REMARK  7 active torsions:
REMARK  status: ('A' for Active; 'I' for Inactive)
REMARK    1  A    between atoms: C_2  and  C_3
REMARK    2  A    between atoms: C_2  and  C_23
REMARK    3  A    between atoms: C_4  and  C_5
REMARK    4  A    between atoms: C_9  and  C_10
REMARK    5  A    between atoms: C_11  and  C_12
REMARK    6  A    between atoms: C_28  and  C_29
REMARK    7  A    between atoms: C_34  and  O_35
REMARK                            x       y       z     vdW  Elec       q    Type
REMARK                         _______ _______ _______ _____ _____    ______ ____
ROOT
ATOM      1  C   UNL     1     -31.231   7.540   7.793  0.00  0.00    +0.052 C 
ATOM      2  C   UNL     1     -30.456   8.572   7.426  0.00  0.00    +0.012 C 
ENDROOT
BRANCH   2   3
ATOM      3  C   UNL     1     -29.019   8.445   7.144  0.00  0.00    -0.024 A 
ATOM      4  C   UNL     1     -28.349   9.313   6.274  0.00  0.00    +0.008 A 
ATOM      5  C   UNL     1     -26.988   9.141   6.015  0.00  0.00    +0.001 A 
ATOM      6  C   UNL     1     -26.289   8.091   6.609  0.00  0.00    +0.008 A 
ATOM      7  C   UNL     1     -26.944   7.192   7.457  0.00  0.00    -0.024 A 
ATOM      8  C   UNL     1     -28.307   7.384   7.724  0.00  0.00    +0.016 A 
BRANCH   7   9
ATOM      9  C   UNL     1     -26.237   6.086   8.121  0.00  0.00    +0.010 C 
ATOM     10  C   UNL     1     -26.838   5.207   8.939  0.00  0.00    +0.028 C 
BRANCH  10  11
ATOM     11  C   UNL     1     -26.187   4.080   9.617  0.00  0.00    +0.065 A 
ATOM     12  C   UNL     1     -25.104   4.228  10.473  0.00  0.00    +0.028 A 
ATOM     13  C   UNL     1     -24.579   3.093  11.087  0.00  0.00    +0.012 A 
ATOM     14  C   UNL     1     -25.152   1.842  10.840  0.00  0.00    +0.000 A 
ATOM     15  C   UNL     1     -24.656   0.668  11.437  0.00  0.00    +0.010 A 
ATOM     16  C   UNL     1     -25.255  -0.561  11.171  0.00  0.00    +0.001 A 
ATOM     17  C   UNL     1     -26.346  -0.624  10.314  0.00  0.00    +0.002 A 
ATOM     18  C   UNL     1     -26.836   0.546   9.724  0.00  0.00    +0.028 A 
ATOM     19  C   UNL     1     -26.258   1.786   9.969  0.00  0.00    +0.072 A 
ATOM     20  N   UNL     1     -26.768   2.881   9.377  0.00  0.00    -0.247 NA
ENDBRANCH  10  11
ENDBRANCH   7   9
ENDBRANCH   2   3
BRANCH   1  22
ATOM     21  O   UNL     1     -33.276   8.695   7.923  0.00  0.00    -0.287 OA
ATOM     22  C   UNL     1     -32.682   7.637   8.110  0.00  0.00    +0.190 C 
BRANCH  22  23
ATOM     23  C   UNL     1     -33.438   6.462   8.587  0.00  0.00    +0.065 A 
ATOM     24  C   UNL     1     -32.693   5.363   9.027  0.00  0.00    +0.035 A 
ATOM     25  C   UNL     1     -33.350   4.221   9.468  0.00  0.00    +0.043 A 
ATOM     26 CL   UNL     1     -32.440   2.873  10.028  0.00  0.00    -0.083 Cl
ATOM     27  C   UNL     1     -34.745   4.157   9.461  0.00  0.00    +0.035 A 
ATOM     28  C   UNL     1     -35.508   5.242   8.998  0.00  0.00    +0.066 A 
ATOM     29  C   UNL     1     -34.840   6.399   8.553  0.00  0.00    +0.138 A 
BRANCH  28  30
ATOM     30  C   UNL     1     -36.962   5.131   8.983  0.00  0.00    +0.208 A 
ATOM     31  N   UNL     1     -37.805   6.190   9.223  0.00  0.00    -0.108 NA
ATOM     32  N   UNL     1     -39.042   5.724   9.135  0.00  0.00    -0.049 NA
ATOM     33  N   UNL     1     -38.898   4.426   8.854  0.00  0.00    -0.176 N 
ATOM     34  N   UNL     1     -37.631   3.986   8.733  0.00  0.00    -0.133 NA
ATOM     35  H   UNL     1     -39.702   3.814   8.738  0.00  0.00    +0.214 HD
ENDBRANCH  28  30
BRANCH  29  36
ATOM     36  O   UNL     1     -35.525   7.481   8.058  0.00  0.00    -0.505 OA
ATOM     37  H   UNL     1     -35.854   8.019   8.810  0.00  0.00    +0.292 HD
ENDBRANCH  29  36
ENDBRANCH  22  23
ENDBRANCH   1  22
TORSDOF 7
ENDMDL
MODEL 3
REMARK VINA RESULT:   -12.212      3.189      6.988
REMARK INTER + INTRA:         -18.223
REMARK INTER:                 -17.018
REMARK INTRA:                  -1.204
REMARK UNBOUND:                -1.371
REMARK  Name = CHEMBL12143
REMARK  7 active torsions:
REMARK  status: ('A' for Active; 'I' for Inactive)
REMARK    1  A    between atoms: C_2  and  C_3
REMARK    2  A    between atoms: C_2  and  C_23
REMARK    3  A    between atoms: C_4  and  C_5
REMARK    4  A    between atoms: C_9  and  C_10
REMARK    5  A    between atoms: C_11  and  C_12
REMARK    6  A    between atoms: C_28  and  C_29
REMARK    7  A    between atoms: C_34  and  O_35
REMARK                            x       y       z     vdW  Elec       q    Type
REMARK                         _______ _______ _______ _____ _____    ______ ____
ROOT
ATOM      1  C   UNL     1     -28.380   6.174   8.486  0.00  0.00    +0.052 C 
ATOM      2  C   UNL     1     -28.461   7.459   8.107  0.00  0.00    +0.012 C 
ENDROOT
BRANCH   2   3
ATOM      3  C   UNL     1     -29.720   8.113   7.723  0.00  0.00    -0.024 A 
ATOM      4  C   UNL     1     -29.751   9.351   7.071  0.00  0.00    +0.008 A 
ATOM      5  C   UNL     1     -30.970   9.949   6.747  0.00  0.00    +0.001 A 
ATOM      6  C   UNL     1     -32.169   9.323   7.087  0.00  0.00    +0.008 A 
ATOM      7  C   UNL     1     -32.164   8.101   7.767  0.00  0.00    -0.024 A 
ATOM      8  C   UNL     1     -30.934   7.501   8.072  0.00  0.00    +0.016 A 
BRANCH   7   9
ATOM      9  C   UNL     1     -33.406   7.398   8.122  0.00  0.00    +0.010 C 
ATOM     10  C   UNL     1     -33.799   6.250   7.547  0.00  0.00    +0.028 C 
BRANCH  10  11
ATOM     11  C   UNL     1     -35.019   5.501   7.869  0.00  0.00    +0.065 A 
ATOM     12  C   UNL     1     -35.196   4.160   7.559  0.00  0.00    +0.028 A 
ATOM     13  C   UNL     1     -36.384   3.538   7.937  0.00  0.00    +0.012 A 
ATOM     14  C   UNL     1     -37.361   4.266   8.623  0.00  0.00    +0.000 A 
ATOM     15  C   UNL     1     -38.575   3.681   9.025  0.00  0.00    +0.010 A 
ATOM     16  C   UNL     1     -39.525   4.435   9.710  0.00  0.00    +0.001 A 
ATOM     17  C   UNL     1     -39.267   5.770   9.997  0.00  0.00    +0.002 A 
ATOM     18  C   UNL     1     -38.056   6.346   9.597  0.00  0.00    +0.028 A 
ATOM     19  C   UNL     1     -37.092   5.619   8.911  0.00  0.00    +0.072 A 
ATOM     20  N   UNL     1     -35.945   6.220   8.548  0.00  0.00    -0.247 NA
ENDBRANCH  10  11
ENDBRANCH   7   9
ENDBRANCH   2   3
BRANCH   1  22
ATOM     21  O   UNL     1     -26.039   6.020   8.652  0.00  0.00    -0.287 OA
ATOM     22  C   UNL     1     -27.120   5.475   8.857  0.00  0.00    +0.190 C 
BRANCH  22  23
ATOM     23  C   UNL     1     -27.148   4.160   9.527  0.00  0.00    +0.065 A 
ATOM     24  C   UNL     1     -28.406   3.623   9.820  0.00  0.00    +0.035 A 
ATOM     25  C   UNL     1     -28.494   2.397  10.468  0.00  0.00    +0.043 A 
ATOM     26 CL   UNL     1     -30.038   1.723  10.816  0.00  0.00    -0.083 Cl
ATOM     27  C   UNL     1     -27.340   1.707  10.843  0.00  0.00    +0.035 A 
ATOM     28  C   UNL     1     -26.068   2.245  10.579  0.00  0.00    +0.066 A 
ATOM     29  C   UNL     1     -25.981   3.486   9.920  0.00  0.00    +0.138 A 
BRANCH  28  30
ATOM     30  C   UNL     1     -24.884   1.507  11.005  0.00  0.00    +0.208 A 
ATOM     31  N   UNL     1     -23.692   1.528  10.322  0.00  0.00    -0.108 NA
ATOM     32  N   UNL     1     -22.854   0.747  10.987  0.00  0.00    -0.049 NA
ATOM     33  N   UNL     1     -23.562   0.292  12.024  0.00  0.00    -0.176 N 
ATOM     34  N   UNL     1     -24.832   0.731  12.108  0.00  0.00    -0.133 NA
ATOM     35  H   UNL     1     -23.158  -0.345  12.706  0.00  0.00    +0.214 HD
ENDBRANCH  28  30
BRANCH  29  36
ATOM     36  O   UNL     1     -24.772   4.081   9.663  0.00  0.00    -0.505 OA
ATOM     37  H   UNL     1     -24.265   4.146  10.501  0.00  0.00    +0.292 HD
ENDBRANCH  29  36
ENDBRANCH  22  23
ENDBRANCH   1  22
TORSDOF 7
ENDMDL
