MODEL 1
REMARK VINA RESULT:   -12.798      0.000      0.000
REMARK INTER + INTRA:         -19.137
REMARK INTER:                 -18.035
REMARK INTRA:                  -1.102
REMARK UNBOUND:                -1.102
REMARK  Name = CHEMBL7285
REMARK  9 active torsions:
REMARK  status: ('A' for Active; 'I' for Inactive)
REMARK    1  A    between atoms: C_1  and  C_2
REMARK    2  A    between atoms: C_2  and  C_12
REMARK    3  A    between atoms: C_3  and  C_4
REMARK    4  A    between atoms: C_4  and  N_5
REMARK    5  A    between atoms: C_17  and  C_18
REMARK    6  A    between atoms: C_18  and  C_19
REMARK    7  A    between atoms: C_21  and  C_22
REMARK    8  A    between atoms: C_25  and  C_26
REMARK    9  A    between atoms: C_33  and  C_34
REMARK                            x       y       z     vdW  Elec       q    Type
REMARK                         _______ _______ _______ _____ _____    ______ ____
ROOT
ATOM      1  C   UNL     1      -3.060 -17.491 -58.914  0.00  0.00    -0.022 A 
ATOM      2  C   UNL     1      -3.217 -16.348 -59.711  0.00  0.00    +0.012 A 
ATOM      3  C   UNL     1      -4.022 -15.275 -59.307  0.00  0.00    +0.047 A 
ATOM      4  C   UNL     1      -4.659 -15.407 -58.080  0.00  0.00    +0.135 A 
ATOM      5  O   UNL     1      -5.477 -14.479 -57.512  0.00  0.00    -0.459 OA
ATOM      6  C   UNL     1      -5.901 -14.990 -56.315  0.00  0.00    +0.112 A 
ATOM      7  C   UNL     1      -5.356 -16.245 -56.122  0.00  0.00    +0.053 A 
ATOM      8  C   UNL     1      -4.545 -16.519 -57.256  0.00  0.00    +0.021 A 
ATOM      9  C   UNL     1      -3.730 -17.585 -57.677  0.00  0.00    +0.019 A 
ENDROOT
BRANCH   1  11
ATOM     10  C   UNL     1      -1.791 -19.587 -58.316  0.00  0.00    +0.044 C 
ATOM     11  C   UNL     1      -2.200 -18.603 -59.372  0.00  0.00    -0.045 C 
ATOM     12  C   UNL     1      -1.849 -18.656 -60.673  0.00  0.00    +0.001 C 
BRANCH  12  13
ATOM     13  C   UNL     1      -1.021 -19.705 -61.351  0.00  0.00    +0.194 C 
BRANCH  13  14
ATOM     14  N   UNL     1      -0.398 -19.132 -62.526  0.00  0.00    -0.147 N 
ATOM     15  O   UNL     1      -0.135 -17.728 -62.376  0.00  0.00    -0.316 OA
ATOM     16  C   UNL     1       1.118 -17.488 -62.875  0.00  0.00    +0.441 A 
ATOM     17  O   UNL     1       1.706 -16.420 -62.812  0.00  0.00    -0.221 OA
ATOM     18  N   UNL     1       1.614 -18.630 -63.374  0.00  0.00    -0.240 N 
ATOM     19  C   UNL     1       0.836 -19.647 -62.942  0.00  0.00    +0.361 A 
ATOM     20  O   UNL     1       1.204 -20.808 -62.859  0.00  0.00    -0.244 OA
ATOM     21  H   UNL     1       2.593 -18.743 -63.573  0.00  0.00    +0.177 HD
ENDBRANCH  13  14
ENDBRANCH  12  13
ENDBRANCH   1  11
BRANCH   6  22
ATOM     22  C   UNL     1      -6.828 -14.119 -55.538  0.00  0.00    +0.133 C 
BRANCH  22  23
ATOM     23  C   UNL     1      -6.336 -13.789 -54.174  0.00  0.00    +0.090 A 
ATOM     24  N   UNL     1      -4.989 -13.639 -53.919  0.00  0.00    -0.213 NA
ATOM     25  C   UNL     1      -4.928 -13.357 -52.632  0.00  0.00    +0.228 A 
ATOM     26  O   UNL     1      -6.149 -13.304 -52.015  0.00  0.00    -0.440 OA
ATOM     27  C   UNL     1      -7.044 -13.591 -53.006  0.00  0.00    +0.126 A 
ATOM     28  C   UNL     1      -8.471 -13.601 -52.639  0.00  0.00    +0.088 C 
BRANCH  25  29
ATOM     29  C   UNL     1      -3.755 -13.081 -51.807  0.00  0.00    +0.037 A 
ATOM     30  C   UNL     1      -3.579 -11.861 -51.141  0.00  0.00    +0.014 A 
ATOM     31  C   UNL     1      -2.444 -11.630 -50.357  0.00  0.00    +0.013 A 
ATOM     32  C   UNL     1      -1.462 -12.616 -50.217  0.00  0.00    +0.055 A 
ATOM     33  C   UNL     1      -1.629 -13.837 -50.890  0.00  0.00    +0.013 A 
ATOM     34  C   UNL     1      -2.763 -14.065 -51.672  0.00  0.00    +0.014 A 
BRANCH  32  35
ATOM     35  C   UNL     1      -0.227 -12.380 -49.385  0.00  0.00    +0.417 C 
ATOM     36  F   UNL     1      -0.516 -11.971 -48.118  0.00  0.00    -0.166 F 
ATOM     37  F   UNL     1       0.529 -13.504 -49.252  0.00  0.00    -0.166 F 
ATOM     38  F   UNL     1       0.602 -11.430 -49.897  0.00  0.00    -0.166 F 
ENDBRANCH  32  35
ENDBRANCH  25  29
ENDBRANCH  22  23
ENDBRANCH   6  22
TORSDOF 7
ENDMDL
MODEL 2
REMARK VINA RESULT:   -12.328      5.458     10.067
REMARK INTER + INTRA:         -18.474
REMARK INTER:                 -17.550
REMARK INTRA:                  -0.924
REMARK UNBOUND:                -1.102
REMARK  Name = CHEMBL7285
REMARK  9 active torsions:
REMARK  status: ('A' for Active; 'I' for Inactive)
REMARK    1  A    between atoms: C_1  and  C_2
REMARK    2  A    between atoms: C_2  and  C_12
REMARK    3  A    between atoms: C_3  and  C_4
REMARK    4  A    between atoms: C_4  and  N_5
REMARK    5  A    between atoms: C_17  and  C_18
REMARK    6  A    between atoms: C_18  and  C_19
REMARK    7  A    between atoms: C_21  and  C_22
REMARK    8  A    between atoms: C_25  and  C_26
REMARK    9  A    between atoms: C_33  and  C_34
REMARK                            x       y       z     vdW  Elec       q    Type
REMARK                         _______ _______ _______ _____ _____    ______ ____
ROOT
ATOM      1  C   UNL     1      -2.641 -12.102 -50.104  0.00  0.00    -0.022 A 
ATOM      2  C   UNL     1      -2.892 -10.747 -50.364  0.00  0.00    +0.012 A 
ATOM      3  C   UNL     1      -3.814 -10.344 -51.338  0.00  0.00    +0.047 A 
ATOM      4  C   UNL     1      -4.461 -11.356 -52.036  0.00  0.00    +0.135 A 
ATOM      5  O   UNL     1      -5.389 -11.173 -53.014  0.00  0.00    -0.459 OA
ATOM      6  C   UNL     1      -5.775 -12.413 -53.445  0.00  0.00    +0.112 A 
ATOM      7  C   UNL     1      -5.091 -13.387 -52.743  0.00  0.00    +0.053 A 
ATOM      8  C   UNL     1      -4.243 -12.712 -51.824  0.00  0.00    +0.021 A 
ATOM      9  C   UNL     1      -3.317 -13.097 -50.839  0.00  0.00    +0.019 A 
ENDROOT
BRANCH   1  11
ATOM     10  C   UNL     1      -2.095 -12.259 -47.647  0.00  0.00    +0.044 C 
ATOM     11  C   UNL     1      -1.663 -12.489 -49.065  0.00  0.00    -0.045 C 
ATOM     12  C   UNL     1      -0.481 -13.009 -49.451  0.00  0.00    +0.001 C 
BRANCH  12  13
ATOM     13  C   UNL     1       0.631 -13.496 -48.572  0.00  0.00    +0.194 C 
BRANCH  13  14
ATOM     14  N   UNL     1       1.896 -13.287 -49.244  0.00  0.00    -0.147 N 
ATOM     15  O   UNL     1       2.020 -14.080 -50.435  0.00  0.00    -0.316 OA
ATOM     16  C   UNL     1       2.560 -13.281 -51.408  0.00  0.00    +0.441 A 
ATOM     17  O   UNL     1       2.706 -13.599 -52.577  0.00  0.00    -0.221 OA
ATOM     18  N   UNL     1       2.831 -12.077 -50.881  0.00  0.00    -0.240 N 
ATOM     19  C   UNL     1       2.209 -11.995 -49.685  0.00  0.00    +0.361 A 
ATOM     20  O   UNL     1       1.905 -10.947 -49.137  0.00  0.00    -0.244 OA
ATOM     21  H   UNL     1       3.009 -11.273 -51.457  0.00  0.00    +0.177 HD
ENDBRANCH  13  14
ENDBRANCH  12  13
ENDBRANCH   1  11
BRANCH   6  22
ATOM     22  C   UNL     1      -6.789 -12.425 -54.538  0.00  0.00    +0.133 C 
BRANCH  22  23
ATOM     23  C   UNL     1      -6.644 -13.570 -55.476  0.00  0.00    +0.090 A 
ATOM     24  N   UNL     1      -5.420 -13.890 -56.026  0.00  0.00    -0.213 NA
ATOM     25  C   UNL     1      -5.668 -14.936 -56.790  0.00  0.00    +0.228 A 
ATOM     26  O   UNL     1      -6.978 -15.336 -56.780  0.00  0.00    -0.440 OA
ATOM     27  C   UNL     1      -7.597 -14.451 -55.944  0.00  0.00    +0.126 A 
ATOM     28  C   UNL     1      -9.042 -14.636 -55.723  0.00  0.00    +0.088 C 
BRANCH  25  29
ATOM     29  C   UNL     1      -4.743 -15.714 -57.609  0.00  0.00    +0.037 A 
ATOM     30  C   UNL     1      -4.349 -15.302 -58.889  0.00  0.00    +0.014 A 
ATOM     31  C   UNL     1      -3.459 -16.071 -59.647  0.00  0.00    +0.013 A 
ATOM     32  C   UNL     1      -2.940 -17.267 -59.140  0.00  0.00    +0.055 A 
ATOM     33  C   UNL     1      -3.341 -17.690 -57.862  0.00  0.00    +0.013 A 
ATOM     34  C   UNL     1      -4.228 -16.920 -57.107  0.00  0.00    +0.014 A 
BRANCH  32  35
ATOM     35  C   UNL     1      -1.990 -18.114 -59.948  0.00  0.00    +0.417 C 
ATOM     36  F   UNL     1      -2.596 -18.724 -61.004  0.00  0.00    -0.166 F 
ATOM     37  F   UNL     1      -0.968 -17.384 -60.474  0.00  0.00    -0.166 F 
ATOM     38  F   UNL     1      -1.406 -19.113 -59.232  0.00  0.00    -0.166 F 
ENDBRANCH  32  35
ENDBRANCH  25  29
ENDBRANCH  22  23
ENDBRANCH   6  22
TORSDOF 7
ENDMDL
MODEL 3
REMARK VINA RESULT:   -12.317      5.339     10.846
REMARK INTER + INTRA:         -18.460
REMARK INTER:                 -18.391
REMARK INTRA:                  -0.069
REMARK UNBOUND:                -1.102
REMARK  Name = CHEMBL7285
REMARK  9 active torsions:
REMARK  status: ('A' for Active; 'I' for Inactive)
REMARK    1  A    between atoms: C_1  and  C_2
REMARK    2  A    between atoms: C_2  and  C_12
REMARK    3  A    between atoms: C_3  and  C_4
REMARK    4  A    between atoms: C_4  and  N_5
REMARK    5  A    between atoms: C_17  and  C_18
REMARK    6  A    between atoms: C_18  and  C_19
REMARK    7  A    between atoms: C_21  and  C_22
REMARK    8  A    between atoms: C_25  and  C_26
REMARK    9  A    between atoms: C_33  and  C_34
REMARK                            x       y       z     vdW  Elec       q    Type
REMARK                         _______ _______ _______ _____ _____    ______ ____
ROOT
ATOM      1  C   UNL     1      -2.708 -12.814 -50.652  0.00  0.00    -0.022 A 
ATOM      2  C   UNL     1      -3.055 -11.459 -50.753  0.00  0.00    +0.012 A 
ATOM      3  C   UNL     1      -4.022 -11.014 -51.663  0.00  0.00    +0.047 A 
ATOM      4  C   UNL     1      -4.613 -11.983 -52.463  0.00  0.00    +0.135 A 
ATOM      5  O   UNL     1      -5.572 -11.755 -53.401  0.00  0.00    -0.459 OA
ATOM      6  C   UNL     1      -5.883 -12.963 -53.965  0.00  0.00    +0.112 A 
ATOM      7  C   UNL     1      -5.120 -13.960 -53.387  0.00  0.00    +0.053 A 
ATOM      8  C   UNL     1      -4.301 -13.335 -52.409  0.00  0.00    +0.021 A 
ATOM      9  C   UNL     1      -3.330 -13.764 -51.487  0.00  0.00    +0.019 A 
ENDROOT
BRANCH   1  11
ATOM     10  C   UNL     1      -2.166 -13.433 -48.268  0.00  0.00    +0.044 C 
ATOM     11  C   UNL     1      -1.684 -13.247 -49.677  0.00  0.00    -0.045 C 
ATOM     12  C   UNL     1      -0.422 -13.440 -50.107  0.00  0.00    +0.001 C 
BRANCH  12  13
ATOM     13  C   UNL     1       0.753 -13.908 -49.303  0.00  0.00    +0.194 C 
BRANCH  13  14
ATOM     14  N   UNL     1       1.265 -12.803 -48.521  0.00  0.00    -0.147 N 
ATOM     15  O   UNL     1       0.312 -12.326 -47.558  0.00  0.00    -0.316 OA
ATOM     16  C   UNL     1       0.985 -12.107 -46.385  0.00  0.00    +0.441 A 
ATOM     17  O   UNL     1       0.465 -11.799 -45.325  0.00  0.00    -0.221 OA
ATOM     18  N   UNL     1       2.288 -12.355 -46.579  0.00  0.00    -0.240 N 
ATOM     19  C   UNL     1       2.420 -13.008 -47.755  0.00  0.00    +0.361 A 
ATOM     20  O   UNL     1       3.365 -13.724 -48.044  0.00  0.00    -0.244 OA
ATOM     21  H   UNL     1       2.924 -12.487 -45.812  0.00  0.00    +0.177 HD
ENDBRANCH  13  14
ENDBRANCH  12  13
ENDBRANCH   1  11
BRANCH   6  22
ATOM     22  C   UNL     1      -6.916 -12.921 -55.038  0.00  0.00    +0.133 C 
BRANCH  22  23
ATOM     23  C   UNL     1      -6.666 -13.880 -56.148  0.00  0.00    +0.090 A 
ATOM     24  N   UNL     1      -5.382 -14.172 -56.561  0.00  0.00    -0.213 NA
ATOM     25  C   UNL     1      -5.542 -15.040 -57.541  0.00  0.00    +0.228 A 
ATOM     26  O   UNL     1      -6.851 -15.349 -57.803  0.00  0.00    -0.440 OA
ATOM     27  C   UNL     1      -7.563 -14.596 -56.913  0.00  0.00    +0.126 A 
ATOM     28  C   UNL     1      -9.030 -14.724 -56.950  0.00  0.00    +0.088 C 
BRANCH  25  29
ATOM     29  C   UNL     1      -4.528 -15.711 -58.348  0.00  0.00    +0.037 A 
ATOM     30  C   UNL     1      -3.737 -16.751 -57.842  0.00  0.00    +0.014 A 
ATOM     31  C   UNL     1      -2.774 -17.374 -58.643  0.00  0.00    +0.013 A 
ATOM     32  C   UNL     1      -2.585 -16.975 -59.971  0.00  0.00    +0.055 A 
ATOM     33  C   UNL     1      -3.368 -15.926 -60.479  0.00  0.00    +0.013 A 
ATOM     34  C   UNL     1      -4.329 -15.306 -59.677  0.00  0.00    +0.014 A 
BRANCH  32  35
ATOM     35  C   UNL     1      -1.544 -17.627 -60.845  0.00  0.00    +0.417 C 
ATOM     36  F   UNL     1      -1.877 -17.605 -62.166  0.00  0.00    -0.166 F 
ATOM     37  F   UNL     1      -0.334 -17.012 -60.754  0.00  0.00    -0.166 F 
ATOM     38  F   UNL     1      -1.323 -18.936 -60.544  0.00  0.00    -0.166 F 
ENDBRANCH  32  35
ENDBRANCH  25  29
ENDBRANCH  22  23
ENDBRANCH   6  22
TORSDOF 7
ENDMDL
