MODEL 1
REMARK VINA RESULT:   -13.491      0.000      0.000
REMARK INTER + INTRA:         -19.871
REMARK INTER:                 -19.012
REMARK INTRA:                  -0.859
REMARK UNBOUND:                -0.859
REMARK  Name = CHEMBL7285
REMARK  9 active torsions:
REMARK  status: ('A' for Active; 'I' for Inactive)
REMARK    1  A    between atoms: C_1  and  C_2
REMARK    2  A    between atoms: C_2  and  C_12
REMARK    3  A    between atoms: C_3  and  C_4
REMARK    4  A    between atoms: C_4  and  N_5
REMARK    5  A    between atoms: C_17  and  C_18
REMARK    6  A    between atoms: C_18  and  C_19
REMARK    7  A    between atoms: C_21  and  C_22
REMARK    8  A    between atoms: C_25  and  C_26
REMARK    9  A    between atoms: C_33  and  C_34
REMARK                            x       y       z     vdW  Elec       q    Type
REMARK                         _______ _______ _______ _____ _____    ______ ____
ROOT
ATOM      1  C   UNL     1      -3.163 -17.108 -58.707  0.00  0.00    -0.022 A 
ATOM      2  C   UNL     1      -3.529 -16.043 -59.543  0.00  0.00    +0.012 A 
ATOM      3  C   UNL     1      -4.369 -15.015 -59.099  0.00  0.00    +0.047 A 
ATOM      4  C   UNL     1      -4.825 -15.109 -57.791  0.00  0.00    +0.135 A 
ATOM      5  O   UNL     1      -5.643 -14.213 -57.173  0.00  0.00    -0.459 OA
ATOM      6  C   UNL     1      -5.858 -14.670 -55.901  0.00  0.00    +0.112 A 
ATOM      7  C   UNL     1      -5.177 -15.857 -55.708  0.00  0.00    +0.053 A 
ATOM      8  C   UNL     1      -4.501 -16.145 -56.924  0.00  0.00    +0.021 A 
ATOM      9  C   UNL     1      -3.653 -17.167 -57.387  0.00  0.00    +0.019 A 
ENDROOT
BRANCH   1  11
ATOM     10  C   UNL     1      -2.241 -19.435 -58.397  0.00  0.00    +0.044 C 
ATOM     11  C   UNL     1      -2.271 -18.174 -59.211  0.00  0.00    -0.045 C 
ATOM     12  C   UNL     1      -1.565 -17.949 -60.336  0.00  0.00    +0.001 C 
BRANCH  12  13
ATOM     13  C   UNL     1      -0.637 -18.896 -61.034  0.00  0.00    +0.194 C 
BRANCH  13  14
ATOM     14  N   UNL     1       0.529 -19.118 -60.205  0.00  0.00    -0.147 N 
ATOM     15  O   UNL     1       0.595 -20.462 -59.703  0.00  0.00    -0.316 OA
ATOM     16  C   UNL     1       1.893 -20.885 -59.826  0.00  0.00    +0.441 A 
ATOM     17  O   UNL     1       2.287 -22.016 -59.594  0.00  0.00    -0.221 OA
ATOM     18  N   UNL     1       2.634 -19.877 -60.309  0.00  0.00    -0.240 N 
ATOM     19  C   UNL     1       1.795 -18.925 -60.773  0.00  0.00    +0.361 A 
ATOM     20  O   UNL     1       2.094 -18.093 -61.615  0.00  0.00    -0.244 OA
ATOM     21  H   UNL     1       3.550 -20.028 -60.696  0.00  0.00    +0.177 HD
ENDBRANCH  13  14
ENDBRANCH  12  13
ENDBRANCH   1  11
BRANCH   6  22
ATOM     22  C   UNL     1      -6.750 -13.824 -55.059  0.00  0.00    +0.133 C 
BRANCH  22  23
ATOM     23  C   UNL     1      -6.200 -13.534 -53.707  0.00  0.00    +0.090 A 
ATOM     24  N   UNL     1      -4.850 -13.330 -53.517  0.00  0.00    -0.213 NA
ATOM     25  C   UNL     1      -4.731 -13.105 -52.223  0.00  0.00    +0.228 A 
ATOM     26  O   UNL     1      -5.918 -13.141 -51.540  0.00  0.00    -0.440 OA
ATOM     27  C   UNL     1      -6.852 -13.426 -52.496  0.00  0.00    +0.126 A 
ATOM     28  C   UNL     1      -8.254 -13.523 -52.055  0.00  0.00    +0.088 C 
BRANCH  25  29
ATOM     29  C   UNL     1      -3.530 -12.810 -51.448  0.00  0.00    +0.037 A 
ATOM     30  C   UNL     1      -3.368 -11.608 -50.746  0.00  0.00    +0.014 A 
ATOM     31  C   UNL     1      -2.204 -11.358 -50.012  0.00  0.00    +0.013 A 
ATOM     32  C   UNL     1      -1.176 -12.306 -49.959  0.00  0.00    +0.055 A 
ATOM     33  C   UNL     1      -1.329 -13.508 -50.669  0.00  0.00    +0.013 A 
ATOM     34  C   UNL     1      -2.493 -13.755 -51.401  0.00  0.00    +0.014 A 
BRANCH  32  35
ATOM     35  C   UNL     1       0.090 -12.048 -49.182  0.00  0.00    +0.417 C 
ATOM     36  F   UNL     1       0.870 -13.159 -49.064  0.00  0.00    -0.166 F 
ATOM     37  F   UNL     1       0.872 -11.102 -49.770  0.00  0.00    -0.166 F 
ATOM     38  F   UNL     1      -0.130 -11.616 -47.911  0.00  0.00    -0.166 F 
ENDBRANCH  32  35
ENDBRANCH  25  29
ENDBRANCH  22  23
ENDBRANCH   6  22
TORSDOF 7
ENDMDL
MODEL 2
REMARK VINA RESULT:   -13.231      5.326     10.511
REMARK INTER + INTRA:         -19.504
REMARK INTER:                 -18.737
REMARK INTRA:                  -0.767
REMARK UNBOUND:                -0.859
REMARK  Name = CHEMBL7285
REMARK  9 active torsions:
REMARK  status: ('A' for Active; 'I' for Inactive)
REMARK    1  A    between atoms: C_1  and  C_2
REMARK    2  A    between atoms: C_2  and  C_12
REMARK    3  A    between atoms: C_3  and  C_4
REMARK    4  A    between atoms: C_4  and  N_5
REMARK    5  A    between atoms: C_17  and  C_18
REMARK    6  A    between atoms: C_18  and  C_19
REMARK    7  A    between atoms: C_21  and  C_22
REMARK    8  A    between atoms: C_25  and  C_26
REMARK    9  A    between atoms: C_33  and  C_34
REMARK                            x       y       z     vdW  Elec       q    Type
REMARK                         _______ _______ _______ _____ _____    ______ ____
ROOT
ATOM      1  C   UNL     1      -2.926 -12.568 -50.357  0.00  0.00    -0.022 A 
ATOM      2  C   UNL     1      -3.148 -11.201 -50.584  0.00  0.00    +0.012 A 
ATOM      3  C   UNL     1      -4.013 -10.755 -51.591  0.00  0.00    +0.047 A 
ATOM      4  C   UNL     1      -4.633 -11.735 -52.355  0.00  0.00    +0.135 A 
ATOM      5  O   UNL     1      -5.506 -11.507 -53.373  0.00  0.00    -0.459 OA
ATOM      6  C   UNL     1      -5.882 -12.727 -53.866  0.00  0.00    +0.112 A 
ATOM      7  C   UNL     1      -5.246 -13.733 -53.163  0.00  0.00    +0.053 A 
ATOM      8  C   UNL     1      -4.441 -13.099 -52.178  0.00  0.00    +0.021 A 
ATOM      9  C   UNL     1      -3.572 -13.529 -51.160  0.00  0.00    +0.019 A 
ENDROOT
BRANCH   1  11
ATOM     10  C   UNL     1      -2.633 -13.193 -47.931  0.00  0.00    +0.044 C 
ATOM     11  C   UNL     1      -2.008 -13.001 -49.282  0.00  0.00    -0.045 C 
ATOM     12  C   UNL     1      -0.707 -13.190 -49.579  0.00  0.00    +0.001 C 
BRANCH  12  13
ATOM     13  C   UNL     1       0.379 -13.658 -48.659  0.00  0.00    +0.194 C 
BRANCH  13  14
ATOM     14  N   UNL     1       0.993 -12.510 -48.025  0.00  0.00    -0.147 N 
ATOM     15  O   UNL     1       0.174 -11.956 -46.984  0.00  0.00    -0.316 OA
ATOM     16  C   UNL     1       0.993 -11.668 -45.924  0.00  0.00    +0.441 A 
ATOM     17  O   UNL     1       0.615 -11.282 -44.830  0.00  0.00    -0.221 OA
ATOM     18  N   UNL     1       2.259 -11.948 -46.265  0.00  0.00    -0.240 N 
ATOM     19  C   UNL     1       2.235 -12.680 -47.400  0.00  0.00    +0.361 A 
ATOM     20  O   UNL     1       3.132 -13.427 -47.757  0.00  0.00    -0.244 OA
ATOM     21  H   UNL     1       2.987 -12.037 -45.577  0.00  0.00    +0.177 HD
ENDBRANCH  13  14
ENDBRANCH  12  13
ENDBRANCH   1  11
BRANCH   6  22
ATOM     22  C   UNL     1      -6.837 -12.690 -55.010  0.00  0.00    +0.133 C 
BRANCH  22  23
ATOM     23  C   UNL     1      -6.571 -13.725 -56.045  0.00  0.00    +0.090 A 
ATOM     24  N   UNL     1      -5.283 -14.029 -56.433  0.00  0.00    -0.213 NA
ATOM     25  C   UNL     1      -5.429 -14.970 -57.347  0.00  0.00    +0.228 A 
ATOM     26  O   UNL     1      -6.733 -15.314 -57.589  0.00  0.00    -0.440 OA
ATOM     27  C   UNL     1      -7.458 -14.506 -56.758  0.00  0.00    +0.126 A 
ATOM     28  C   UNL     1      -8.922 -14.655 -56.788  0.00  0.00    +0.088 C 
BRANCH  25  29
ATOM     29  C   UNL     1      -4.405 -15.685 -58.100  0.00  0.00    +0.037 A 
ATOM     30  C   UNL     1      -4.058 -15.334 -59.412  0.00  0.00    +0.014 A 
ATOM     31  C   UNL     1      -3.069 -16.041 -60.105  0.00  0.00    +0.013 A 
ATOM     32  C   UNL     1      -2.401 -17.111 -59.501  0.00  0.00    +0.055 A 
ATOM     33  C   UNL     1      -2.752 -17.473 -58.190  0.00  0.00    +0.013 A 
ATOM     34  C   UNL     1      -3.739 -16.766 -57.500  0.00  0.00    +0.014 A 
BRANCH  32  35
ATOM     35  C   UNL     1      -1.341 -17.891 -60.237  0.00  0.00    +0.417 C 
ATOM     36  F   UNL     1      -1.822 -19.038 -60.793  0.00  0.00    -0.166 F 
ATOM     37  F   UNL     1      -0.796 -17.179 -61.261  0.00  0.00    -0.166 F 
ATOM     38  F   UNL     1      -0.300 -18.272 -59.449  0.00  0.00    -0.166 F 
ENDBRANCH  32  35
ENDBRANCH  25  29
ENDBRANCH  22  23
ENDBRANCH   6  22
TORSDOF 7
ENDMDL
MODEL 3
REMARK VINA RESULT:   -11.510      5.394      8.452
REMARK INTER + INTRA:         -17.079
REMARK INTER:                 -15.822
REMARK INTRA:                  -1.258
REMARK UNBOUND:                -0.859
REMARK  Name = CHEMBL7285
REMARK  9 active torsions:
REMARK  status: ('A' for Active; 'I' for Inactive)
REMARK    1  A    between atoms: C_1  and  C_2
REMARK    2  A    between atoms: C_2  and  C_12
REMARK    3  A    between atoms: C_3  and  C_4
REMARK    4  A    between atoms: C_4  and  N_5
REMARK    5  A    between atoms: C_17  and  C_18
REMARK    6  A    between atoms: C_18  and  C_19
REMARK    7  A    between atoms: C_21  and  C_22
REMARK    8  A    between atoms: C_25  and  C_26
REMARK    9  A    between atoms: C_33  and  C_34
REMARK                            x       y       z     vdW  Elec       q    Type
REMARK                         _______ _______ _______ _____ _____    ______ ____
ROOT
ATOM      1  C   UNL     1       3.925 -16.282 -60.444  0.00  0.00    -0.022 A 
ATOM      2  C   UNL     1       3.378 -15.235 -59.689  0.00  0.00    +0.012 A 
ATOM      3  C   UNL     1       1.998 -15.124 -59.476  0.00  0.00    +0.047 A 
ATOM      4  C   UNL     1       1.202 -16.101 -60.058  0.00  0.00    +0.135 A 
ATOM      5  O   UNL     1      -0.155 -16.171 -59.967  0.00  0.00    -0.459 OA
ATOM      6  C   UNL     1      -0.553 -17.271 -60.678  0.00  0.00    +0.112 A 
ATOM      7  C   UNL     1       0.550 -17.900 -61.224  0.00  0.00    +0.053 A 
ATOM      8  C   UNL     1       1.690 -17.153 -60.822  0.00  0.00    +0.021 A 
ATOM      9  C   UNL     1       3.078 -17.250 -61.021  0.00  0.00    +0.019 A 
ENDROOT
BRANCH   1  11
ATOM     10  C   UNL     1       5.903 -17.699 -61.110  0.00  0.00    +0.044 C 
ATOM     11  C   UNL     1       5.387 -16.368 -60.644  0.00  0.00    -0.045 C 
ATOM     12  C   UNL     1       6.139 -15.276 -60.401  0.00  0.00    +0.001 C 
BRANCH  12  13
ATOM     13  C   UNL     1       7.621 -15.134 -60.571  0.00  0.00    +0.194 C 
BRANCH  13  14
ATOM     14  N   UNL     1       7.907 -14.709 -61.925  0.00  0.00    -0.147 N 
ATOM     15  O   UNL     1       6.924 -13.791 -62.429  0.00  0.00    -0.316 OA
ATOM     16  C   UNL     1       7.592 -12.791 -63.085  0.00  0.00    +0.441 A 
ATOM     17  O   UNL     1       7.075 -11.787 -63.546  0.00  0.00    -0.221 OA
ATOM     18  N   UNL     1       8.905 -13.064 -63.072  0.00  0.00    -0.240 N 
ATOM     19  C   UNL     1       9.118 -14.052 -62.175  0.00  0.00    +0.361 A 
ATOM     20  O   UNL     1      10.186 -14.262 -61.622  0.00  0.00    -0.244 OA
ATOM     21  H   UNL     1       9.595 -12.365 -63.283  0.00  0.00    +0.177 HD
ENDBRANCH  13  14
ENDBRANCH  12  13
ENDBRANCH   1  11
BRANCH   6  22
ATOM     22  C   UNL     1      -2.023 -17.515 -60.710  0.00  0.00    +0.133 C 
BRANCH  22  23
ATOM     23  C   UNL     1      -2.699 -17.273 -59.408  0.00  0.00    +0.090 A 
ATOM     24  N   UNL     1      -3.609 -16.248 -59.258  0.00  0.00    -0.213 NA
ATOM     25  C   UNL     1      -3.995 -16.333 -57.999  0.00  0.00    +0.228 A 
ATOM     26  O   UNL     1      -3.403 -17.354 -57.303  0.00  0.00    -0.440 OA
ATOM     27  C   UNL     1      -2.568 -17.944 -58.209  0.00  0.00    +0.126 A 
ATOM     28  C   UNL     1      -1.786 -19.102 -57.744  0.00  0.00    +0.088 C 
BRANCH  25  29
ATOM     29  C   UNL     1      -4.963 -15.512 -57.278  0.00  0.00    +0.037 A 
ATOM     30  C   UNL     1      -6.076 -14.941 -57.908  0.00  0.00    +0.014 A 
ATOM     31  C   UNL     1      -6.986 -14.160 -57.186  0.00  0.00    +0.013 A 
ATOM     32  C   UNL     1      -6.804 -13.938 -55.816  0.00  0.00    +0.055 A 
ATOM     33  C   UNL     1      -5.684 -14.500 -55.183  0.00  0.00    +0.013 A 
ATOM     34  C   UNL     1      -4.778 -15.279 -55.905  0.00  0.00    +0.014 A 
BRANCH  32  35
ATOM     35  C   UNL     1      -7.768 -13.090 -55.026  0.00  0.00    +0.417 C 
ATOM     36  F   UNL     1      -8.922 -13.747 -54.723  0.00  0.00    -0.166 F 
ATOM     37  F   UNL     1      -7.244 -12.687 -53.836  0.00  0.00    -0.166 F 
ATOM     38  F   UNL     1      -8.150 -11.954 -55.670  0.00  0.00    -0.166 F 
ENDBRANCH  32  35
ENDBRANCH  25  29
ENDBRANCH  22  23
ENDBRANCH   6  22
TORSDOF 7
ENDMDL
