MODEL 1
REMARK VINA RESULT:   -10.601      0.000      0.000
REMARK INTER + INTRA:         -15.962
REMARK INTER:                 -14.939
REMARK INTRA:                  -1.023
REMARK UNBOUND:                -1.023
REMARK  Name = CHEMBL7285
REMARK  9 active torsions:
REMARK  status: ('A' for Active; 'I' for Inactive)
REMARK    1  A    between atoms: C_1  and  C_2
REMARK    2  A    between atoms: C_2  and  C_12
REMARK    3  A    between atoms: C_3  and  C_4
REMARK    4  A    between atoms: C_4  and  N_5
REMARK    5  A    between atoms: C_17  and  C_18
REMARK    6  A    between atoms: C_18  and  C_19
REMARK    7  A    between atoms: C_21  and  C_22
REMARK    8  A    between atoms: C_25  and  C_26
REMARK    9  A    between atoms: C_33  and  C_34
REMARK                            x       y       z     vdW  Elec       q    Type
REMARK                         _______ _______ _______ _____ _____    ______ ____
ROOT
ATOM      1  C   UNL     1      20.369   5.254 -11.956  0.00  0.00    -0.022 A 
ATOM      2  C   UNL     1      21.701   4.815 -11.911  0.00  0.00    +0.012 A 
ATOM      3  C   UNL     1      22.773   5.712 -11.993  0.00  0.00    +0.047 A 
ATOM      4  C   UNL     1      22.449   7.055 -12.127  0.00  0.00    +0.135 A 
ATOM      5  O   UNL     1      23.342   8.078 -12.219  0.00  0.00    -0.459 OA
ATOM      6  C   UNL     1      22.623   9.236 -12.343  0.00  0.00    +0.112 A 
ATOM      7  C   UNL     1      21.270   8.950 -12.331  0.00  0.00    +0.053 A 
ATOM      8  C   UNL     1      21.149   7.542 -12.186  0.00  0.00    +0.021 A 
ATOM      9  C   UNL     1      20.085   6.627 -12.098  0.00  0.00    +0.019 A 
ENDROOT
BRANCH   1  11
ATOM     10  C   UNL     1      19.058   3.410 -13.070  0.00  0.00    +0.044 C 
ATOM     11  C   UNL     1      19.263   4.278 -11.863  0.00  0.00    -0.045 C 
ATOM     12  C   UNL     1      18.532   4.234 -10.731  0.00  0.00    +0.001 C 
BRANCH  12  13
ATOM     13  C   UNL     1      17.399   3.306 -10.414  0.00  0.00    +0.194 C 
BRANCH  13  14
ATOM     14  N   UNL     1      17.800   2.410  -9.350  0.00  0.00    -0.147 N 
ATOM     15  O   UNL     1      18.967   2.877  -8.653  0.00  0.00    -0.316 OA
ATOM     16  C   UNL     1      18.749   2.692  -7.314  0.00  0.00    +0.441 A 
ATOM     17  O   UNL     1      19.490   3.075  -6.423  0.00  0.00    -0.221 OA
ATOM     18  N   UNL     1      17.562   2.091  -7.145  0.00  0.00    -0.240 N 
ATOM     19  C   UNL     1      16.890   2.156  -8.316  0.00  0.00    +0.361 A 
ATOM     20  O   UNL     1      15.676   2.085  -8.418  0.00  0.00    -0.244 OA
ATOM     21  H   UNL     1      17.097   2.071  -6.254  0.00  0.00    +0.177 HD
ENDBRANCH  13  14
ENDBRANCH  12  13
ENDBRANCH   1  11
BRANCH   6  22
ATOM     22  C   UNL     1      23.430  10.481 -12.472  0.00  0.00    +0.133 C 
BRANCH  22  23
ATOM     23  C   UNL     1      23.266  11.168 -13.781  0.00  0.00    +0.090 A 
ATOM     24  N   UNL     1      22.558  10.581 -14.809  0.00  0.00    -0.213 NA
ATOM     25  C   UNL     1      22.619  11.459 -15.792  0.00  0.00    +0.228 A 
ATOM     26  O   UNL     1      23.319  12.595 -15.482  0.00  0.00    -0.440 OA
ATOM     27  C   UNL     1      23.737  12.397 -14.197  0.00  0.00    +0.126 A 
ATOM     28  C   UNL     1      24.523  13.475 -13.574  0.00  0.00    +0.088 C 
BRANCH  25  29
ATOM     29  C   UNL     1      22.036  11.384 -17.128  0.00  0.00    +0.037 A 
ATOM     30  C   UNL     1      22.284  12.353 -18.109  0.00  0.00    +0.014 A 
ATOM     31  C   UNL     1      21.709  12.249 -19.380  0.00  0.00    +0.013 A 
ATOM     32  C   UNL     1      20.877  11.171 -19.701  0.00  0.00    +0.055 A 
ATOM     33  C   UNL     1      20.617  10.203 -18.718  0.00  0.00    +0.013 A 
ATOM     34  C   UNL     1      21.192  10.308 -17.450  0.00  0.00    +0.014 A 
BRANCH  32  35
ATOM     35  C   UNL     1      20.241  11.050 -21.062  0.00  0.00    +0.417 C 
ATOM     36  F   UNL     1      19.307  12.015 -21.295  0.00  0.00    -0.166 F 
ATOM     37  F   UNL     1      21.150  11.160 -22.068  0.00  0.00    -0.166 F 
ATOM     38  F   UNL     1      19.602   9.865 -21.261  0.00  0.00    -0.166 F 
ENDBRANCH  32  35
ENDBRANCH  25  29
ENDBRANCH  22  23
ENDBRANCH   6  22
TORSDOF 7
ENDMDL
MODEL 2
REMARK VINA RESULT:   -10.087      5.521     11.985
REMARK INTER + INTRA:         -15.237
REMARK INTER:                 -14.265
REMARK INTRA:                  -0.972
REMARK UNBOUND:                -1.023
REMARK  Name = CHEMBL7285
REMARK  9 active torsions:
REMARK  status: ('A' for Active; 'I' for Inactive)
REMARK    1  A    between atoms: C_1  and  C_2
REMARK    2  A    between atoms: C_2  and  C_12
REMARK    3  A    between atoms: C_3  and  C_4
REMARK    4  A    between atoms: C_4  and  N_5
REMARK    5  A    between atoms: C_17  and  C_18
REMARK    6  A    between atoms: C_18  and  C_19
REMARK    7  A    between atoms: C_21  and  C_22
REMARK    8  A    between atoms: C_25  and  C_26
REMARK    9  A    between atoms: C_33  and  C_34
REMARK                            x       y       z     vdW  Elec       q    Type
REMARK                         _______ _______ _______ _____ _____    ______ ____
ROOT
ATOM      1  C   UNL     1      21.867  11.599 -18.136  0.00  0.00    -0.022 A 
ATOM      2  C   UNL     1      20.875  10.630 -17.927  0.00  0.00    +0.012 A 
ATOM      3  C   UNL     1      20.782   9.920 -16.723  0.00  0.00    +0.047 A 
ATOM      4  C   UNL     1      21.727  10.223 -15.751  0.00  0.00    +0.135 A 
ATOM      5  O   UNL     1      21.804   9.650 -14.519  0.00  0.00    -0.459 OA
ATOM      6  C   UNL     1      22.868  10.218 -13.873  0.00  0.00    +0.112 A 
ATOM      7  C   UNL     1      23.471  11.152 -14.694  0.00  0.00    +0.053 A 
ATOM      8  C   UNL     1      22.734  11.166 -15.909  0.00  0.00    +0.021 A 
ATOM      9  C   UNL     1      22.810  11.871 -17.124  0.00  0.00    +0.019 A 
ENDROOT
BRANCH   1  11
ATOM     10  C   UNL     1      20.625  12.501 -20.136  0.00  0.00    +0.044 C 
ATOM     11  C   UNL     1      21.932  12.330 -19.419  0.00  0.00    -0.045 C 
ATOM     12  C   UNL     1      23.127  12.782 -19.847  0.00  0.00    +0.001 C 
BRANCH  12  13
ATOM     13  C   UNL     1      23.412  13.570 -21.090  0.00  0.00    +0.194 C 
BRANCH  13  14
ATOM     14  N   UNL     1      24.402  12.870 -21.881  0.00  0.00    -0.147 N 
ATOM     15  O   UNL     1      25.689  12.839 -21.243  0.00  0.00    -0.316 OA
ATOM     16  C   UNL     1      26.193  11.574 -21.395  0.00  0.00    +0.441 A 
ATOM     17  O   UNL     1      27.223  11.163 -20.884  0.00  0.00    -0.221 OA
ATOM     18  N   UNL     1      25.337  10.850 -22.131  0.00  0.00    -0.240 N 
ATOM     19  C   UNL     1      24.170  11.527 -22.201  0.00  0.00    +0.361 A 
ATOM     20  O   UNL     1      23.087  11.011 -22.426  0.00  0.00    -0.244 OA
ATOM     21  H   UNL     1      25.385   9.847 -22.168  0.00  0.00    +0.177 HD
ENDBRANCH  13  14
ENDBRANCH  12  13
ENDBRANCH   1  11
BRANCH   6  22
ATOM     22  C   UNL     1      23.129   9.707 -12.498  0.00  0.00    +0.133 C 
BRANCH  22  23
ATOM     23  C   UNL     1      22.736   8.286 -12.302  0.00  0.00    +0.090 A 
ATOM     24  N   UNL     1      21.915   7.911 -11.259  0.00  0.00    -0.213 NA
ATOM     25  C   UNL     1      21.784   6.605 -11.398  0.00  0.00    +0.228 A 
ATOM     26  O   UNL     1      22.462   6.088 -12.471  0.00  0.00    -0.440 OA
ATOM     27  C   UNL     1      23.076   7.169 -13.038  0.00  0.00    +0.126 A 
ATOM     28  C   UNL     1      23.888   6.922 -14.241  0.00  0.00    +0.088 C 
BRANCH  25  29
ATOM     29  C   UNL     1      21.013   5.669 -10.587  0.00  0.00    +0.037 A 
ATOM     30  C   UNL     1      20.436   4.511 -11.126  0.00  0.00    +0.014 A 
ATOM     31  C   UNL     1      19.704   3.633 -10.319  0.00  0.00    +0.013 A 
ATOM     32  C   UNL     1      19.536   3.891  -8.954  0.00  0.00    +0.055 A 
ATOM     33  C   UNL     1      20.104   5.055  -8.411  0.00  0.00    +0.013 A 
ATOM     34  C   UNL     1      20.834   5.930  -9.219  0.00  0.00    +0.014 A 
BRANCH  32  35
ATOM     35  C   UNL     1      18.741   2.962  -8.073  0.00  0.00    +0.417 C 
ATOM     36  F   UNL     1      19.016   3.127  -6.749  0.00  0.00    -0.166 F 
ATOM     37  F   UNL     1      17.399   3.150  -8.202  0.00  0.00    -0.166 F 
ATOM     38  F   UNL     1      18.960   1.644  -8.332  0.00  0.00    -0.166 F 
ENDBRANCH  32  35
ENDBRANCH  25  29
ENDBRANCH  22  23
ENDBRANCH   6  22
TORSDOF 7
ENDMDL
MODEL 3
REMARK VINA RESULT:   -10.053      5.942     11.212
REMARK INTER + INTRA:         -15.190
REMARK INTER:                 -14.025
REMARK INTRA:                  -1.165
REMARK UNBOUND:                -1.023
REMARK  Name = CHEMBL7285
REMARK  9 active torsions:
REMARK  status: ('A' for Active; 'I' for Inactive)
REMARK    1  A    between atoms: C_1  and  C_2
REMARK    2  A    between atoms: C_2  and  C_12
REMARK    3  A    between atoms: C_3  and  C_4
REMARK    4  A    between atoms: C_4  and  N_5
REMARK    5  A    between atoms: C_17  and  C_18
REMARK    6  A    between atoms: C_18  and  C_19
REMARK    7  A    between atoms: C_21  and  C_22
REMARK    8  A    between atoms: C_25  and  C_26
REMARK    9  A    between atoms: C_33  and  C_34
REMARK                            x       y       z     vdW  Elec       q    Type
REMARK                         _______ _______ _______ _____ _____    ______ ____
ROOT
ATOM      1  C   UNL     1      21.233  11.152 -18.080  0.00  0.00    -0.022 A 
ATOM      2  C   UNL     1      22.627  11.048 -18.184  0.00  0.00    +0.012 A 
ATOM      3  C   UNL     1      23.419  10.661 -17.095  0.00  0.00    +0.047 A 
ATOM      4  C   UNL     1      22.750  10.391 -15.909  0.00  0.00    +0.135 A 
ATOM      5  O   UNL     1      23.335   9.998 -14.744  0.00  0.00    -0.459 OA
ATOM      6  C   UNL     1      22.337   9.841 -13.821  0.00  0.00    +0.112 A 
ATOM      7  C   UNL     1      21.115  10.136 -14.397  0.00  0.00    +0.053 A 
ATOM      8  C   UNL     1      21.373  10.486 -15.749  0.00  0.00    +0.021 A 
ATOM      9  C   UNL     1      20.595  10.873 -16.855  0.00  0.00    +0.019 A 
ENDROOT
BRANCH   1  11
ATOM     10  C   UNL     1      20.079  13.019 -19.323  0.00  0.00    +0.044 C 
ATOM     11  C   UNL     1      20.430  11.562 -19.253  0.00  0.00    -0.045 C 
ATOM     12  C   UNL     1      20.078  10.624 -20.155  0.00  0.00    +0.001 C 
BRANCH  12  13
ATOM     13  C   UNL     1      19.303  10.825 -21.422  0.00  0.00    +0.194 C 
BRANCH  13  14
ATOM     14  N   UNL     1      19.010   9.535 -22.010  0.00  0.00    -0.147 N 
ATOM     15  O   UNL     1      18.929   8.491 -21.026  0.00  0.00    -0.316 OA
ATOM     16  C   UNL     1      17.845   7.714 -21.338  0.00  0.00    +0.441 A 
ATOM     17  O   UNL     1      17.418   6.799 -20.653  0.00  0.00    -0.221 OA
ATOM     18  N   UNL     1      17.296   8.169 -22.474  0.00  0.00    -0.240 N 
ATOM     19  C   UNL     1      17.819   9.388 -22.732  0.00  0.00    +0.361 A 
ATOM     20  O   UNL     1      17.277  10.238 -23.420  0.00  0.00    -0.244 OA
ATOM     21  H   UNL     1      16.369   7.905 -22.759  0.00  0.00    +0.177 HD
ENDBRANCH  13  14
ENDBRANCH  12  13
ENDBRANCH   1  11
BRANCH   6  22
ATOM     22  C   UNL     1      22.781   9.423 -12.461  0.00  0.00    +0.133 C 
BRANCH  22  23
ATOM     23  C   UNL     1      22.485   7.999 -12.147  0.00  0.00    +0.090 A 
ATOM     24  N   UNL     1      21.625   7.660 -11.124  0.00  0.00    -0.213 NA
ATOM     25  C   UNL     1      21.604   6.341 -11.137  0.00  0.00    +0.228 A 
ATOM     26  O   UNL     1      22.391   5.781 -12.108  0.00  0.00    -0.440 OA
ATOM     27  C   UNL     1      22.959   6.849 -12.743  0.00  0.00    +0.126 A 
ATOM     28  C   UNL     1      23.869   6.555 -13.863  0.00  0.00    +0.088 C 
BRANCH  25  29
ATOM     29  C   UNL     1      20.852   5.426 -10.283  0.00  0.00    +0.037 A 
ATOM     30  C   UNL     1      20.121   4.349 -10.802  0.00  0.00    +0.014 A 
ATOM     31  C   UNL     1      19.413   3.490  -9.955  0.00  0.00    +0.013 A 
ATOM     32  C   UNL     1      19.423   3.686  -8.569  0.00  0.00    +0.055 A 
ATOM     33  C   UNL     1      20.146   4.771  -8.046  0.00  0.00    +0.013 A 
ATOM     34  C   UNL     1      20.852   5.626  -8.893  0.00  0.00    +0.014 A 
BRANCH  32  35
ATOM     35  C   UNL     1      18.656   2.777  -7.643  0.00  0.00    +0.417 C 
ATOM     36  F   UNL     1      18.907   3.031  -6.329  0.00  0.00    -0.166 F 
ATOM     37  F   UNL     1      17.310   2.899  -7.798  0.00  0.00    -0.166 F 
ATOM     38  F   UNL     1      18.935   1.457  -7.822  0.00  0.00    -0.166 F 
ENDBRANCH  32  35
ENDBRANCH  25  29
ENDBRANCH  22  23
ENDBRANCH   6  22
TORSDOF 7
ENDMDL
