MODEL 1
REMARK VINA RESULT:   -12.375      0.000      0.000
REMARK INTER + INTRA:         -15.900
REMARK INTER:                 -15.269
REMARK INTRA:                  -0.631
REMARK UNBOUND:                -0.631
REMARK  Name = CHEMBL4436402
REMARK  4 active torsions:
REMARK  status: ('A' for Active; 'I' for Inactive)
REMARK    1  A    between atoms: C_3  and  C_4
REMARK    2  A    between atoms: C_4  and  N_5
REMARK    3  A    between atoms: C_23  and  C_24
REMARK    4  A    between atoms: C_24  and  N_25
REMARK                            x       y       z     vdW  Elec       q    Type
REMARK                         _______ _______ _______ _____ _____    ______ ____
ROOT
ATOM      1  C   UNL     1      -5.151 -16.994 -57.071  0.00  0.00    +0.006 A 
ATOM      2  C   UNL     1      -4.028 -17.794 -57.302  0.00  0.00    +0.006 A 
ATOM      3  C   UNL     1      -2.996 -17.351 -58.140  0.00  0.00    -0.026 A 
ATOM      4  C   UNL     1      -3.101 -16.082 -58.723  0.00  0.00    +0.006 A 
ATOM      5  C   UNL     1      -4.224 -15.284 -58.494  0.00  0.00    +0.006 A 
ATOM      6  C   UNL     1      -5.256 -15.725 -57.655  0.00  0.00    -0.026 A 
ENDROOT
BRANCH   3   7
ATOM      7  C   UNL     1      -1.777 -18.217 -58.370  0.00  0.00    +0.176 C 
BRANCH   7   8
ATOM      8  N   UNL     1      -1.037 -17.892 -59.591  0.00  0.00    -0.287 NA
ATOM      9  C   UNL     1      -1.634 -18.064 -60.712  0.00  0.00    +0.021 C 
ATOM     10  C   UNL     1      -3.035 -18.512 -61.049  0.00  0.00    +0.045 C 
ATOM     11  C   UNL     1      -3.438 -17.354 -62.022  0.00  0.00    +0.002 C 
ATOM     12  C   UNL     1      -4.424 -18.000 -62.974  0.00  0.00    +0.008 C 
ATOM     13  C   UNL     1      -3.478 -19.117 -63.371  0.00  0.00    +0.002 C 
ATOM     14  C   UNL     1      -2.192 -18.381 -63.825  0.00  0.00    +0.005 C 
ATOM     15  C   UNL     1      -2.171 -17.149 -62.911  0.00  0.00    +0.006 C 
ATOM     16  C   UNL     1      -0.987 -17.743 -62.102  0.00  0.00    +0.045 C 
ATOM     17  C   UNL     1      -0.991 -18.988 -63.058  0.00  0.00    +0.061 C 
ATOM     18  C   UNL     1      -1.603 -20.236 -62.402  0.00  0.00    +0.177 C 
ATOM     19  O   UNL     1      -1.663 -21.298 -63.364  0.00  0.00    -0.346 OA
ATOM     20  C   UNL     1      -1.080 -22.423 -62.707  0.00  0.00    +0.191 C 
ATOM     21  C   UNL     1      -0.135 -21.804 -61.715  0.00  0.00    +0.191 C 
ATOM     22  O   UNL     1      -0.853 -20.658 -61.265  0.00  0.00    -0.346 OA
ATOM     23  C   UNL     1      -3.013 -19.743 -62.030  0.00  0.00    +0.061 C 
ENDBRANCH   7   8
ENDBRANCH   3   7
BRANCH   6  24
ATOM     24  C   UNL     1      -6.484 -14.876 -57.416  0.00  0.00    +0.176 C 
BRANCH  24  25
ATOM     25  N   UNL     1      -6.253 -13.726 -56.538  0.00  0.00    -0.287 NA
ATOM     26  C   UNL     1      -6.235 -13.954 -55.276  0.00  0.00    +0.021 C 
ATOM     27  C   UNL     1      -5.997 -12.896 -54.231  0.00  0.00    +0.045 C 
ATOM     28  C   UNL     1      -4.868 -13.597 -53.411  0.00  0.00    +0.002 C 
ATOM     29  C   UNL     1      -5.052 -13.064 -52.004  0.00  0.00    +0.008 C 
ATOM     30  C   UNL     1      -6.509 -13.478 -51.921  0.00  0.00    +0.002 C 
ATOM     31  C   UNL     1      -6.496 -14.985 -52.281  0.00  0.00    +0.005 C 
ATOM     32  C   UNL     1      -5.350 -15.077 -53.297  0.00  0.00    +0.006 C 
ATOM     33  C   UNL     1      -6.366 -15.287 -54.456  0.00  0.00    +0.045 C 
ATOM     34  C   UNL     1      -7.531 -15.223 -53.404  0.00  0.00    +0.061 C 
ATOM     35  C   UNL     1      -8.294 -13.891 -53.456  0.00  0.00    +0.177 C 
ATOM     36  O   UNL     1      -9.276 -13.865 -52.409  0.00  0.00    -0.346 OA
ATOM     37  C   UNL     1     -10.468 -13.404 -53.043  0.00  0.00    +0.191 C 
ATOM     38  C   UNL     1     -10.320 -13.891 -54.457  0.00  0.00    +0.191 C 
ATOM     39  O   UNL     1      -8.930 -13.706 -54.718  0.00  0.00    -0.346 OA
ATOM     40  C   UNL     1      -7.172 -12.868 -53.186  0.00  0.00    +0.061 C 
ENDBRANCH  24  25
ENDBRANCH   6  24
TORSDOF 4
ENDMDL
MODEL 2
REMARK VINA RESULT:   -11.530      1.442     11.379
REMARK INTER + INTRA:         -14.858
REMARK INTER:                 -13.698
REMARK INTRA:                  -1.160
REMARK UNBOUND:                -0.631
REMARK  Name = CHEMBL4436402
REMARK  4 active torsions:
REMARK  status: ('A' for Active; 'I' for Inactive)
REMARK    1  A    between atoms: C_3  and  C_4
REMARK    2  A    between atoms: C_4  and  N_5
REMARK    3  A    between atoms: C_23  and  C_24
REMARK    4  A    between atoms: C_24  and  N_25
REMARK                            x       y       z     vdW  Elec       q    Type
REMARK                         _______ _______ _______ _____ _____    ______ ____
ROOT
ATOM      1  C   UNL     1      -4.743 -15.560 -59.334  0.00  0.00    +0.006 A 
ATOM      2  C   UNL     1      -5.826 -15.329 -58.482  0.00  0.00    +0.006 A 
ATOM      3  C   UNL     1      -5.755 -15.677 -57.126  0.00  0.00    -0.026 A 
ATOM      4  C   UNL     1      -4.569 -16.240 -56.638  0.00  0.00    +0.006 A 
ATOM      5  C   UNL     1      -3.487 -16.473 -57.490  0.00  0.00    +0.006 A 
ATOM      6  C   UNL     1      -3.557 -16.124 -58.845  0.00  0.00    -0.026 A 
ENDROOT
BRANCH   3   7
ATOM      7  C   UNL     1      -6.926 -15.407 -56.208  0.00  0.00    +0.176 C 
BRANCH   7   8
ATOM      8  N   UNL     1      -7.136 -13.989 -55.909  0.00  0.00    -0.287 NA
ATOM      9  C   UNL     1      -6.681 -13.542 -54.797  0.00  0.00    +0.021 C 
ATOM     10  C   UNL     1      -5.890 -14.202 -53.694  0.00  0.00    +0.045 C 
ATOM     11  C   UNL     1      -4.726 -13.164 -53.570  0.00  0.00    +0.002 C 
ATOM     12  C   UNL     1      -4.309 -13.252 -52.115  0.00  0.00    +0.008 C 
ATOM     13  C   UNL     1      -5.705 -12.990 -51.584  0.00  0.00    +0.002 C 
ATOM     14  C   UNL     1      -6.136 -11.676 -52.282  0.00  0.00    +0.005 C 
ATOM     15  C   UNL     1      -5.443 -11.780 -53.648  0.00  0.00    +0.006 C 
ATOM     16  C   UNL     1      -6.806 -12.048 -54.342  0.00  0.00    +0.045 C 
ATOM     17  C   UNL     1      -7.514 -11.912 -52.948  0.00  0.00    +0.061 C 
ATOM     18  C   UNL     1      -7.945 -13.269 -52.367  0.00  0.00    +0.177 C 
ATOM     19  O   UNL     1      -8.492 -13.072 -51.056  0.00  0.00    -0.346 OA
ATOM     20  C   UNL     1      -9.735 -13.773 -51.067  0.00  0.00    +0.191 C 
ATOM     21  C   UNL     1     -10.144 -13.747 -52.514  0.00  0.00    +0.191 C 
ATOM     22  O   UNL     1      -8.904 -13.920 -53.197  0.00  0.00    -0.346 OA
ATOM     23  C   UNL     1      -6.607 -14.028 -52.303  0.00  0.00    +0.061 C 
ENDBRANCH   7   8
ENDBRANCH   3   7
BRANCH   6  24
ATOM     24  C   UNL     1      -2.398 -16.390 -59.779  0.00  0.00    +0.176 C 
BRANCH  24  25
ATOM     25  N   UNL     1      -2.797 -16.658 -61.163  0.00  0.00    -0.287 NA
ATOM     26  C   UNL     1      -2.622 -17.853 -61.596  0.00  0.00    +0.021 C 
ATOM     27  C   UNL     1      -2.987 -18.309 -62.984  0.00  0.00    +0.045 C 
ATOM     28  C   UNL     1      -3.821 -19.579 -62.623  0.00  0.00    +0.002 C 
ATOM     29  C   UNL     1      -3.615 -20.501 -63.809  0.00  0.00    +0.008 C 
ATOM     30  C   UNL     1      -2.102 -20.457 -63.719  0.00  0.00    +0.002 C 
ATOM     31  C   UNL     1      -1.797 -20.851 -62.253  0.00  0.00    +0.005 C 
ATOM     32  C   UNL     1      -2.993 -20.264 -61.492  0.00  0.00    +0.006 C 
ATOM     33  C   UNL     1      -2.090 -19.150 -60.889  0.00  0.00    +0.045 C 
ATOM     34  C   UNL     1      -0.865 -19.777 -61.646  0.00  0.00    +0.061 C 
ATOM     35  C   UNL     1      -0.449 -18.952 -62.872  0.00  0.00    +0.177 C 
ATOM     36  O   UNL     1       0.608 -19.631 -63.567  0.00  0.00    -0.346 OA
ATOM     37  C   UNL     1       1.579 -18.620 -63.825  0.00  0.00    +0.191 C 
ATOM     38  C   UNL     1       1.396 -17.662 -62.682  0.00  0.00    +0.191 C 
ATOM     39  O   UNL     1      -0.017 -17.646 -62.497  0.00  0.00    -0.346 OA
ATOM     40  C   UNL     1      -1.745 -18.945 -63.709  0.00  0.00    +0.061 C 
ENDBRANCH  24  25
ENDBRANCH   6  24
TORSDOF 4
ENDMDL
MODEL 3
REMARK VINA RESULT:   -11.018      1.639     11.351
REMARK INTER + INTRA:         -14.226
REMARK INTER:                 -13.240
REMARK INTRA:                  -0.986
REMARK UNBOUND:                -0.631
REMARK  Name = CHEMBL4436402
REMARK  4 active torsions:
REMARK  status: ('A' for Active; 'I' for Inactive)
REMARK    1  A    between atoms: C_3  and  C_4
REMARK    2  A    between atoms: C_4  and  N_5
REMARK    3  A    between atoms: C_23  and  C_24
REMARK    4  A    between atoms: C_24  and  N_25
REMARK                            x       y       z     vdW  Elec       q    Type
REMARK                         _______ _______ _______ _____ _____    ______ ____
ROOT
ATOM      1  C   UNL     1      -3.750 -15.665 -59.829  0.00  0.00    +0.006 A 
ATOM      2  C   UNL     1      -4.752 -15.216 -58.965  0.00  0.00    +0.006 A 
ATOM      3  C   UNL     1      -4.636 -15.399 -57.580  0.00  0.00    -0.026 A 
ATOM      4  C   UNL     1      -3.486 -16.021 -57.079  0.00  0.00    +0.006 A 
ATOM      5  C   UNL     1      -2.485 -16.472 -57.943  0.00  0.00    +0.006 A 
ATOM      6  C   UNL     1      -2.599 -16.288 -59.326  0.00  0.00    -0.026 A 
ENDROOT
BRANCH   3   7
ATOM      7  C   UNL     1      -5.718 -14.895 -56.652  0.00  0.00    +0.176 C 
BRANCH   7   8
ATOM      8  N   UNL     1      -5.577 -15.351 -55.268  0.00  0.00    -0.287 NA
ATOM      9  C   UNL     1      -6.498 -15.026 -54.437  0.00  0.00    +0.021 C 
ATOM     10  C   UNL     1      -7.791 -14.267 -54.613  0.00  0.00    +0.045 C 
ATOM     11  C   UNL     1      -8.768 -15.284 -53.935  0.00  0.00    +0.002 C 
ATOM     12  C   UNL     1      -9.874 -14.411 -53.374  0.00  0.00    +0.008 C 
ATOM     13  C   UNL     1      -8.928 -13.528 -52.584  0.00  0.00    +0.002 C 
ATOM     14  C   UNL     1      -8.097 -14.524 -51.736  0.00  0.00    +0.005 C 
ATOM     15  C   UNL     1      -8.003 -15.749 -52.656  0.00  0.00    +0.006 C 
ATOM     16  C   UNL     1      -6.504 -15.454 -52.930  0.00  0.00    +0.045 C 
ATOM     17  C   UNL     1      -6.596 -14.219 -51.965  0.00  0.00    +0.061 C 
ATOM     18  C   UNL     1      -6.632 -12.880 -52.719  0.00  0.00    +0.177 C 
ATOM     19  O   UNL     1      -6.816 -11.811 -51.780  0.00  0.00    -0.346 OA
ATOM     20  C   UNL     1      -5.802 -10.861 -52.102  0.00  0.00    +0.191 C 
ATOM     21  C   UNL     1      -4.712 -11.697 -52.712  0.00  0.00    +0.191 C 
ATOM     22  O   UNL     1      -5.440 -12.662 -53.469  0.00  0.00    -0.346 OA
ATOM     23  C   UNL     1      -7.871 -13.051 -53.615  0.00  0.00    +0.061 C 
ENDBRANCH   7   8
ENDBRANCH   3   7
BRANCH   6  24
ATOM     24  C   UNL     1      -1.531 -16.789 -60.271  0.00  0.00    +0.176 C 
BRANCH  24  25
ATOM     25  N   UNL     1      -2.011 -17.053 -61.629  0.00  0.00    -0.287 NA
ATOM     26  C   UNL     1      -2.334 -18.263 -61.905  0.00  0.00    +0.021 C 
ATOM     27  C   UNL     1      -2.860 -18.712 -63.244  0.00  0.00    +0.045 C 
ATOM     28  C   UNL     1      -4.132 -19.484 -62.772  0.00  0.00    +0.002 C 
ATOM     29  C   UNL     1      -4.321 -20.557 -63.825  0.00  0.00    +0.008 C 
ATOM     30  C   UNL     1      -2.918 -21.110 -63.670  0.00  0.00    +0.002 C 
ATOM     31  C   UNL     1      -2.790 -21.399 -62.153  0.00  0.00    +0.005 C 
ATOM     32  C   UNL     1      -3.645 -20.289 -61.527  0.00  0.00    +0.006 C 
ATOM     33  C   UNL     1      -2.366 -19.561 -61.021  0.00  0.00    +0.045 C 
ATOM     34  C   UNL     1      -1.501 -20.719 -61.637  0.00  0.00    +0.061 C 
ATOM     35  C   UNL     1      -0.794 -20.296 -62.934  0.00  0.00    +0.177 C 
ATOM     36  O   UNL     1      -0.104 -21.425 -63.490  0.00  0.00    -0.346 OA
ATOM     37  C   UNL     1       1.191 -20.929 -63.822  0.00  0.00    +0.191 C 
ATOM     38  C   UNL     1       1.415 -19.839 -62.813  0.00  0.00    +0.191 C 
ATOM     39  O   UNL     1       0.129 -19.235 -62.700  0.00  0.00    -0.346 OA
ATOM     40  C   UNL     1      -1.982 -19.880 -63.825  0.00  0.00    +0.061 C 
ENDBRANCH  24  25
ENDBRANCH   6  24
TORSDOF 4
ENDMDL
