MODEL 1
REMARK VINA RESULT:   -11.044      0.000      0.000
REMARK INTER + INTRA:         -14.531
REMARK INTER:                 -13.626
REMARK INTRA:                  -0.905
REMARK UNBOUND:                -0.905
REMARK  Name = CHEMBL4436402
REMARK  4 active torsions:
REMARK  status: ('A' for Active; 'I' for Inactive)
REMARK    1  A    between atoms: C_3  and  C_4
REMARK    2  A    between atoms: C_4  and  N_5
REMARK    3  A    between atoms: C_23  and  C_24
REMARK    4  A    between atoms: C_24  and  N_25
REMARK                            x       y       z     vdW  Elec       q    Type
REMARK                         _______ _______ _______ _____ _____    ______ ____
ROOT
ATOM      1  C   UNL     1      20.966   9.215 -13.599  0.00  0.00    +0.006 A 
ATOM      2  C   UNL     1      21.213   9.919 -14.780  0.00  0.00    +0.006 A 
ATOM      3  C   UNL     1      22.413   9.738 -15.482  0.00  0.00    -0.026 A 
ATOM      4  C   UNL     1      23.348   8.821 -14.988  0.00  0.00    +0.006 A 
ATOM      5  C   UNL     1      23.101   8.118 -13.806  0.00  0.00    +0.006 A 
ATOM      6  C   UNL     1      21.902   8.297 -13.105  0.00  0.00    -0.026 A 
ENDROOT
BRANCH   3   7
ATOM      7  C   UNL     1      22.665  10.493 -16.768  0.00  0.00    +0.176 C 
BRANCH   7   8
ATOM      8  N   UNL     1      21.588  11.412 -17.142  0.00  0.00    -0.287 NA
ATOM      9  C   UNL     1      21.520  11.782 -18.367  0.00  0.00    +0.021 C 
ATOM     10  C   UNL     1      22.339  11.409 -19.579  0.00  0.00    +0.045 C 
ATOM     11  C   UNL     1      21.177  11.026 -20.554  0.00  0.00    +0.002 C 
ATOM     12  C   UNL     1      21.727  11.355 -21.928  0.00  0.00    +0.008 C 
ATOM     13  C   UNL     1      22.063  12.790 -21.572  0.00  0.00    +0.002 C 
ATOM     14  C   UNL     1      20.737  13.363 -21.012  0.00  0.00    +0.005 C 
ATOM     15  C   UNL     1      20.109  12.141 -20.326  0.00  0.00    +0.006 C 
ATOM     16  C   UNL     1      20.416  12.741 -18.928  0.00  0.00    +0.045 C 
ATOM     17  C   UNL     1      21.031  14.003 -19.633  0.00  0.00    +0.061 C 
ATOM     18  C   UNL     1      22.568  14.017 -19.585  0.00  0.00    +0.177 C 
ATOM     19  O   UNL     1      23.056  15.141 -20.331  0.00  0.00    -0.346 OA
ATOM     20  C   UNL     1      23.985  15.784 -19.460  0.00  0.00    +0.191 C 
ATOM     21  C   UNL     1      23.491  15.426 -18.086  0.00  0.00    +0.191 C 
ATOM     22  O   UNL     1      23.056  14.078 -18.247  0.00  0.00    -0.346 OA
ATOM     23  C   UNL     1      22.921  12.691 -20.283  0.00  0.00    +0.061 C 
ENDBRANCH   7   8
ENDBRANCH   3   7
BRANCH   6  24
ATOM     24  C   UNL     1      21.634   7.555 -11.816  0.00  0.00    +0.176 C 
BRANCH  24  25
ATOM     25  N   UNL     1      22.006   6.139 -11.853  0.00  0.00    -0.287 NA
ATOM     26  C   UNL     1      21.048   5.287 -11.852  0.00  0.00    +0.021 C 
ATOM     27  C   UNL     1      21.245   3.794 -11.902  0.00  0.00    +0.045 C 
ATOM     28  C   UNL     1      20.282   3.450 -13.082  0.00  0.00    +0.002 C 
ATOM     29  C   UNL     1      19.812   2.043 -12.772  0.00  0.00    +0.008 C 
ATOM     30  C   UNL     1      19.318   2.398 -11.383  0.00  0.00    +0.002 C 
ATOM     31  C   UNL     1      18.365   3.598 -11.614  0.00  0.00    +0.005 C 
ATOM     32  C   UNL     1      19.017   4.318 -12.802  0.00  0.00    +0.006 C 
ATOM     33  C   UNL     1      19.488   5.472 -11.871  0.00  0.00    +0.045 C 
ATOM     34  C   UNL     1      18.791   4.743 -10.666  0.00  0.00    +0.061 C 
ATOM     35  C   UNL     1      19.799   4.059  -9.732  0.00  0.00    +0.177 C 
ATOM     36  O   UNL     1      19.091   3.335  -8.715  0.00  0.00    -0.346 OA
ATOM     37  C   UNL     1      19.745   3.688  -7.498  0.00  0.00    +0.191 C 
ATOM     38  C   UNL     1      20.254   5.076  -7.767  0.00  0.00    +0.191 C 
ATOM     39  O   UNL     1      20.674   5.008  -9.128  0.00  0.00    -0.346 OA
ATOM     40  C   UNL     1      20.523   3.094 -10.694  0.00  0.00    +0.061 C 
ENDBRANCH  24  25
ENDBRANCH   6  24
TORSDOF 4
ENDMDL
MODEL 2
REMARK VINA RESULT:   -10.539      8.424     13.147
REMARK INTER + INTRA:         -13.908
REMARK INTER:                 -12.981
REMARK INTRA:                  -0.927
REMARK UNBOUND:                -0.905
REMARK  Name = CHEMBL4436402
REMARK  4 active torsions:
REMARK  status: ('A' for Active; 'I' for Inactive)
REMARK    1  A    between atoms: C_3  and  C_4
REMARK    2  A    between atoms: C_4  and  N_5
REMARK    3  A    between atoms: C_23  and  C_24
REMARK    4  A    between atoms: C_24  and  N_25
REMARK                            x       y       z     vdW  Elec       q    Type
REMARK                         _______ _______ _______ _____ _____    ______ ____
ROOT
ATOM      1  C   UNL     1      15.179   4.534 -17.294  0.00  0.00    +0.006 A 
ATOM      2  C   UNL     1      15.839   4.307 -16.084  0.00  0.00    +0.006 A 
ATOM      3  C   UNL     1      15.219   3.581 -15.058  0.00  0.00    -0.026 A 
ATOM      4  C   UNL     1      13.934   3.070 -15.278  0.00  0.00    +0.006 A 
ATOM      5  C   UNL     1      13.274   3.299 -16.488  0.00  0.00    +0.006 A 
ATOM      6  C   UNL     1      13.894   4.023 -17.514  0.00  0.00    -0.026 A 
ENDROOT
BRANCH   3   7
ATOM      7  C   UNL     1      15.948   3.326 -13.757  0.00  0.00    +0.176 C 
BRANCH   7   8
ATOM      8  N   UNL     1      17.148   4.145 -13.575  0.00  0.00    -0.287 NA
ATOM      9  C   UNL     1      18.195   3.571 -13.109  0.00  0.00    +0.021 C 
ATOM     10  C   UNL     1      18.474   2.136 -12.733  0.00  0.00    +0.045 C 
ATOM     11  C   UNL     1      19.797   1.922 -13.541  0.00  0.00    +0.002 C 
ATOM     12  C   UNL     1      20.560   0.894 -12.729  0.00  0.00    +0.008 C 
ATOM     13  C   UNL     1      20.501   1.701 -11.446  0.00  0.00    +0.002 C 
ATOM     14  C   UNL     1      21.070   3.086 -11.842  0.00  0.00    +0.005 C 
ATOM     15  C   UNL     1      20.605   3.235 -13.298  0.00  0.00    +0.006 C 
ATOM     16  C   UNL     1      19.561   4.303 -12.878  0.00  0.00    +0.045 C 
ATOM     17  C   UNL     1      20.059   4.170 -11.394  0.00  0.00    +0.061 C 
ATOM     18  C   UNL     1      19.081   3.379 -10.510  0.00  0.00    +0.177 C 
ATOM     19  O   UNL     1      19.649   3.215  -9.203  0.00  0.00    -0.346 OA
ATOM     20  C   UNL     1      18.620   3.623  -8.302  0.00  0.00    +0.191 C 
ATOM     21  C   UNL     1      17.814   4.605  -9.105  0.00  0.00    +0.191 C 
ATOM     22  O   UNL     1      17.816   4.027 -10.408  0.00  0.00    -0.346 OA
ATOM     23  C   UNL     1      18.998   2.032 -11.252  0.00  0.00    +0.061 C 
ENDBRANCH   7   8
ENDBRANCH   3   7
BRANCH   6  24
ATOM     24  C   UNL     1      13.180   4.292 -18.819  0.00  0.00    +0.176 C 
BRANCH  24  25
ATOM     25  N   UNL     1      11.749   3.978 -18.793  0.00  0.00    -0.287 NA
ATOM     26  C   UNL     1      11.404   2.806 -19.182  0.00  0.00    +0.021 C 
ATOM     27  C   UNL     1       9.982   2.309 -19.207  0.00  0.00    +0.045 C 
ATOM     28  C   UNL     1      10.170   0.963 -18.439  0.00  0.00    +0.002 C 
ATOM     29  C   UNL     1       9.095   0.061 -19.012  0.00  0.00    +0.008 C 
ATOM     30  C   UNL     1       9.542   0.259 -20.447  0.00  0.00    +0.002 C 
ATOM     31  C   UNL     1      11.049  -0.097 -20.428  0.00  0.00    +0.005 C 
ATOM     32  C   UNL     1      11.486   0.370 -19.033  0.00  0.00    +0.006 C 
ATOM     33  C   UNL     1      12.255   1.572 -19.652  0.00  0.00    +0.045 C 
ATOM     34  C   UNL     1      11.830   1.069 -21.078  0.00  0.00    +0.061 C 
ATOM     35  C   UNL     1      10.715   1.927 -21.694  0.00  0.00    +0.177 C 
ATOM     36  O   UNL     1      10.312   1.355 -22.948  0.00  0.00    -0.346 OA
ATOM     37  C   UNL     1      10.265   2.459 -23.850  0.00  0.00    +0.191 C 
ATOM     38  C   UNL     1      11.304   3.397 -23.305  0.00  0.00    +0.191 C 
ATOM     39  O   UNL     1      11.145   3.271 -21.894  0.00  0.00    -0.346 OA
ATOM     40  C   UNL     1       9.594   1.799 -20.643  0.00  0.00    +0.061 C 
ENDBRANCH  24  25
ENDBRANCH   6  24
TORSDOF 4
ENDMDL
MODEL 3
REMARK VINA RESULT:   -10.309      1.103     12.050
REMARK INTER + INTRA:         -13.624
REMARK INTER:                 -12.853
REMARK INTRA:                  -0.772
REMARK UNBOUND:                -0.905
REMARK  Name = CHEMBL4436402
REMARK  4 active torsions:
REMARK  status: ('A' for Active; 'I' for Inactive)
REMARK    1  A    between atoms: C_3  and  C_4
REMARK    2  A    between atoms: C_4  and  N_5
REMARK    3  A    between atoms: C_23  and  C_24
REMARK    4  A    between atoms: C_24  and  N_25
REMARK                            x       y       z     vdW  Elec       q    Type
REMARK                         _______ _______ _______ _____ _____    ______ ____
ROOT
ATOM      1  C   UNL     1      23.413   9.316 -14.583  0.00  0.00    +0.006 A 
ATOM      2  C   UNL     1      23.112   8.462 -13.519  0.00  0.00    +0.006 A 
ATOM      3  C   UNL     1      21.798   8.349 -13.044  0.00  0.00    -0.026 A 
ATOM      4  C   UNL     1      20.791   9.092 -13.671  0.00  0.00    +0.006 A 
ATOM      5  C   UNL     1      21.092   9.947 -14.734  0.00  0.00    +0.006 A 
ATOM      6  C   UNL     1      22.404  10.059 -15.210  0.00  0.00    -0.026 A 
ENDROOT
BRANCH   3   7
ATOM      7  C   UNL     1      21.479   7.410 -11.902  0.00  0.00    +0.176 C 
BRANCH   7   8
ATOM      8  N   UNL     1      20.144   6.812 -11.976  0.00  0.00    -0.287 NA
ATOM      9  C   UNL     1      19.837   5.930 -11.098  0.00  0.00    +0.021 C 
ATOM     10  C   UNL     1      20.594   5.385  -9.911  0.00  0.00    +0.045 C 
ATOM     11  C   UNL     1      19.498   5.579  -8.810  0.00  0.00    +0.002 C 
ATOM     12  C   UNL     1      19.774   4.467  -7.818  0.00  0.00    +0.008 C 
ATOM     13  C   UNL     1      19.707   3.369  -8.861  0.00  0.00    +0.002 C 
ATOM     14  C   UNL     1      18.340   3.588  -9.556  0.00  0.00    +0.005 C 
ATOM     15  C   UNL     1      18.179   5.114  -9.503  0.00  0.00    +0.006 C 
ATOM     16  C   UNL     1      18.445   5.216 -11.029  0.00  0.00    +0.045 C 
ATOM     17  C   UNL     1      18.579   3.653 -11.085  0.00  0.00    +0.061 C 
ATOM     18  C   UNL     1      20.039   3.188 -11.220  0.00  0.00    +0.177 C 
ATOM     19  O   UNL     1      20.088   1.755 -11.164  0.00  0.00    -0.346 OA
ATOM     20  C   UNL     1      20.875   1.371 -12.291  0.00  0.00    +0.191 C 
ATOM     21  C   UNL     1      20.661   2.489 -13.272  0.00  0.00    +0.191 C 
ATOM     22  O   UNL     1      20.629   3.643 -12.435  0.00  0.00    -0.346 OA
ATOM     23  C   UNL     1      20.691   3.815  -9.975  0.00  0.00    +0.061 C 
ENDBRANCH   7   8
ENDBRANCH   3   7
BRANCH   6  24
ATOM     24  C   UNL     1      22.744  10.996 -16.348  0.00  0.00    +0.176 C 
BRANCH  24  25
ATOM     25  N   UNL     1      21.579  11.642 -16.957  0.00  0.00    -0.287 NA
ATOM     26  C   UNL     1      21.625  11.850 -18.222  0.00  0.00    +0.021 C 
ATOM     27  C   UNL     1      20.514  12.488 -19.013  0.00  0.00    +0.045 C 
ATOM     28  C   UNL     1      20.374  11.429 -20.153  0.00  0.00    +0.002 C 
ATOM     29  C   UNL     1      19.893  12.235 -21.344  0.00  0.00    +0.008 C 
ATOM     30  C   UNL     1      21.040  13.224 -21.275  0.00  0.00    +0.002 C 
ATOM     31  C   UNL     1      22.309  12.335 -21.288  0.00  0.00    +0.005 C 
ATOM     32  C   UNL     1      21.848  11.083 -20.529  0.00  0.00    +0.006 C 
ATOM     33  C   UNL     1      22.709  11.485 -19.298  0.00  0.00    +0.045 C 
ATOM     34  C   UNL     1      23.201  12.748 -20.094  0.00  0.00    +0.061 C 
ATOM     35  C   UNL     1      22.539  14.044 -19.603  0.00  0.00    +0.177 C 
ATOM     36  O   UNL     1      22.959  15.137 -20.434  0.00  0.00    -0.346 OA
ATOM     37  C   UNL     1      23.314  16.171 -19.519  0.00  0.00    +0.191 C 
ATOM     38  C   UNL     1      23.777  15.417 -18.304  0.00  0.00    +0.191 C 
ATOM     39  O   UNL     1      22.874  14.315 -18.245  0.00  0.00    -0.346 OA
ATOM     40  C   UNL     1      21.042  13.737 -19.810  0.00  0.00    +0.061 C 
ENDBRANCH  24  25
ENDBRANCH   6  24
TORSDOF 4
ENDMDL
