MODEL 1
REMARK VINA RESULT:   -13.210      0.000      0.000
REMARK INTER + INTRA:         -17.526
REMARK INTER:                 -16.299
REMARK INTRA:                  -1.226
REMARK UNBOUND:                -1.226
REMARK  Name = CHEMBL4436402
REMARK  4 active torsions:
REMARK  status: ('A' for Active; 'I' for Inactive)
REMARK    1  A    between atoms: C_3  and  C_4
REMARK    2  A    between atoms: C_4  and  N_5
REMARK    3  A    between atoms: C_23  and  C_24
REMARK    4  A    between atoms: C_24  and  N_25
REMARK                            x       y       z     vdW  Elec       q    Type
REMARK                         _______ _______ _______ _____ _____    ______ ____
ROOT
ATOM      1  C   UNL     1      -3.807 -16.348 -57.060  0.00  0.00    +0.006 A 
ATOM      2  C   UNL     1      -2.569 -16.791 -57.533  0.00  0.00    +0.006 A 
ATOM      3  C   UNL     1      -2.160 -16.502 -58.841  0.00  0.00    -0.026 A 
ATOM      4  C   UNL     1      -3.006 -15.741 -59.658  0.00  0.00    +0.006 A 
ATOM      5  C   UNL     1      -4.244 -15.300 -59.185  0.00  0.00    +0.006 A 
ATOM      6  C   UNL     1      -4.653 -15.587 -57.877  0.00  0.00    -0.026 A 
ENDROOT
BRANCH   3   7
ATOM      7  C   UNL     1      -0.811 -16.972 -59.339  0.00  0.00    +0.176 C 
BRANCH   7   8
ATOM      8  N   UNL     1      -0.814 -18.336 -59.874  0.00  0.00    -0.287 NA
ATOM      9  C   UNL     1      -0.524 -18.490 -61.113  0.00  0.00    +0.021 C 
ATOM     10  C   UNL     1      -0.112 -17.506 -62.181  0.00  0.00    +0.045 C 
ATOM     11  C   UNL     1       1.172 -18.232 -62.703  0.00  0.00    +0.002 C 
ATOM     12  C   UNL     1       1.257 -17.824 -64.161  0.00  0.00    +0.008 C 
ATOM     13  C   UNL     1      -0.146 -18.297 -64.489  0.00  0.00    +0.002 C 
ATOM     14  C   UNL     1      -0.175 -19.767 -64.003  0.00  0.00    +0.005 C 
ATOM     15  C   UNL     1       0.753 -19.733 -62.781  0.00  0.00    +0.006 C 
ATOM     16  C   UNL     1      -0.462 -19.883 -61.827  0.00  0.00    +0.045 C 
ATOM     17  C   UNL     1      -1.406 -19.947 -63.080  0.00  0.00    +0.061 C 
ATOM     18  C   UNL     1      -2.189 -18.642 -63.299  0.00  0.00    +0.177 C 
ATOM     19  O   UNL     1      -2.949 -18.742 -64.511  0.00  0.00    -0.346 OA
ATOM     20  C   UNL     1      -4.270 -18.341 -64.151  0.00  0.00    +0.191 C 
ATOM     21  C   UNL     1      -4.360 -18.685 -62.691  0.00  0.00    +0.191 C 
ATOM     22  O   UNL     1      -3.059 -18.357 -62.207  0.00  0.00    -0.346 OA
ATOM     23  C   UNL     1      -1.056 -17.609 -63.437  0.00  0.00    +0.061 C 
ENDBRANCH   7   8
ENDBRANCH   3   7
BRANCH   6  24
ATOM     24  C   UNL     1      -5.999 -15.130 -57.363  0.00  0.00    +0.176 C 
BRANCH  24  25
ATOM     25  N   UNL     1      -5.949 -13.899 -56.569  0.00  0.00    -0.287 NA
ATOM     26  C   UNL     1      -5.999 -14.028 -55.294  0.00  0.00    +0.021 C 
ATOM     27  C   UNL     1      -5.944 -12.874 -54.327  0.00  0.00    +0.045 C 
ATOM     28  C   UNL     1      -4.812 -13.389 -53.382  0.00  0.00    +0.002 C 
ATOM     29  C   UNL     1      -5.150 -12.773 -52.038  0.00  0.00    +0.008 C 
ATOM     30  C   UNL     1      -6.559 -13.331 -52.015  0.00  0.00    +0.002 C 
ATOM     31  C   UNL     1      -6.370 -14.851 -52.247  0.00  0.00    +0.005 C 
ATOM     32  C   UNL     1      -5.150 -14.898 -53.177  0.00  0.00    +0.006 C 
ATOM     33  C   UNL     1      -6.054 -15.301 -54.377  0.00  0.00    +0.045 C 
ATOM     34  C   UNL     1      -7.292 -15.282 -53.411  0.00  0.00    +0.061 C 
ATOM     35  C   UNL     1      -8.179 -14.046 -53.620  0.00  0.00    +0.177 C 
ATOM     36  O   UNL     1      -9.232 -14.044 -52.644  0.00  0.00    -0.346 OA
ATOM     37  C   UNL     1     -10.415 -13.761 -53.389  0.00  0.00    +0.191 C 
ATOM     38  C   UNL     1     -10.117 -14.334 -54.745  0.00  0.00    +0.191 C 
ATOM     39  O   UNL     1      -8.739 -14.025 -54.931  0.00  0.00    -0.346 OA
ATOM     40  C   UNL     1      -7.188 -12.892 -53.365  0.00  0.00    +0.061 C 
ENDBRANCH  24  25
ENDBRANCH   6  24
TORSDOF 4
ENDMDL
MODEL 2
REMARK VINA RESULT:   -12.596      1.802      3.007
REMARK INTER + INTRA:         -16.768
REMARK INTER:                 -15.950
REMARK INTRA:                  -0.818
REMARK UNBOUND:                -1.226
REMARK  Name = CHEMBL4436402
REMARK  4 active torsions:
REMARK  status: ('A' for Active; 'I' for Inactive)
REMARK    1  A    between atoms: C_3  and  C_4
REMARK    2  A    between atoms: C_4  and  N_5
REMARK    3  A    between atoms: C_23  and  C_24
REMARK    4  A    between atoms: C_24  and  N_25
REMARK                            x       y       z     vdW  Elec       q    Type
REMARK                         _______ _______ _______ _____ _____    ______ ____
ROOT
ATOM      1  C   UNL     1      -5.270 -14.941 -58.415  0.00  0.00    +0.006 A 
ATOM      2  C   UNL     1      -4.032 -15.385 -58.887  0.00  0.00    +0.006 A 
ATOM      3  C   UNL     1      -3.319 -16.375 -58.198  0.00  0.00    -0.026 A 
ATOM      4  C   UNL     1      -3.882 -16.926 -57.040  0.00  0.00    +0.006 A 
ATOM      5  C   UNL     1      -5.119 -16.480 -56.567  0.00  0.00    +0.006 A 
ATOM      6  C   UNL     1      -5.833 -15.492 -57.256  0.00  0.00    -0.026 A 
ENDROOT
BRANCH   3   7
ATOM      7  C   UNL     1      -1.988 -16.862 -58.725  0.00  0.00    +0.176 C 
BRANCH   7   8
ATOM      8  N   UNL     1      -1.834 -16.725 -60.175  0.00  0.00    -0.287 NA
ATOM      9  C   UNL     1      -1.187 -17.643 -60.794  0.00  0.00    +0.021 C 
ATOM     10  C   UNL     1      -0.556 -18.928 -60.316  0.00  0.00    +0.045 C 
ATOM     11  C   UNL     1      -1.195 -19.915 -61.349  0.00  0.00    +0.002 C 
ATOM     12  C   UNL     1      -0.159 -21.013 -61.496  0.00  0.00    +0.008 C 
ATOM     13  C   UNL     1       0.963 -20.058 -61.855  0.00  0.00    +0.002 C 
ATOM     14  C   UNL     1       0.398 -19.237 -63.041  0.00  0.00    +0.005 C 
ATOM     15  C   UNL     1      -1.098 -19.155 -62.708  0.00  0.00    +0.006 C 
ATOM     16  C   UNL     1      -0.956 -17.653 -62.343  0.00  0.00    +0.045 C 
ATOM     17  C   UNL     1       0.568 -17.733 -62.713  0.00  0.00    +0.061 C 
ATOM     18  C   UNL     1       1.478 -17.756 -61.474  0.00  0.00    +0.177 C 
ATOM     19  O   UNL     1       2.840 -17.930 -61.889  0.00  0.00    -0.346 OA
ATOM     20  C   UNL     1       3.564 -16.906 -61.207  0.00  0.00    +0.191 C 
ATOM     21  C   UNL     1       2.541 -15.825 -61.000  0.00  0.00    +0.191 C 
ATOM     22  O   UNL     1       1.356 -16.562 -60.706  0.00  0.00    -0.346 OA
ATOM     23  C   UNL     1       0.963 -18.997 -60.723  0.00  0.00    +0.061 C 
ENDBRANCH   7   8
ENDBRANCH   3   7
BRANCH   6  24
ATOM     24  C   UNL     1      -7.163 -14.989 -56.742  0.00  0.00    +0.176 C 
BRANCH  24  25
ATOM     25  N   UNL     1      -7.104 -13.656 -56.138  0.00  0.00    -0.287 NA
ATOM     26  C   UNL     1      -6.632 -13.578 -54.948  0.00  0.00    +0.021 C 
ATOM     27  C   UNL     1      -6.485 -12.290 -54.182  0.00  0.00    +0.045 C 
ATOM     28  C   UNL     1      -4.992 -12.423 -53.744  0.00  0.00    +0.002 C 
ATOM     29  C   UNL     1      -4.925 -11.666 -52.433  0.00  0.00    +0.008 C 
ATOM     30  C   UNL     1      -6.045 -12.461 -51.791  0.00  0.00    +0.002 C 
ATOM     31  C   UNL     1      -5.608 -13.938 -51.961  0.00  0.00    +0.005 C 
ATOM     32  C   UNL     1      -4.860 -13.914 -53.301  0.00  0.00    +0.006 C 
ATOM     33  C   UNL     1      -6.032 -14.670 -53.992  0.00  0.00    +0.045 C 
ATOM     34  C   UNL     1      -6.775 -14.718 -52.608  0.00  0.00    +0.061 C 
ATOM     35  C   UNL     1      -7.939 -13.718 -52.533  0.00  0.00    +0.177 C 
ATOM     36  O   UNL     1      -8.507 -13.748 -51.216  0.00  0.00    -0.346 OA
ATOM     37  C   UNL     1      -9.915 -13.815 -51.431  0.00  0.00    +0.191 C 
ATOM     38  C   UNL     1     -10.032 -14.541 -52.742  0.00  0.00    +0.191 C 
ATOM     39  O   UNL     1      -8.943 -14.018 -53.498  0.00  0.00    -0.346 OA
ATOM     40  C   UNL     1      -7.226 -12.376 -52.797  0.00  0.00    +0.061 C 
ENDBRANCH  24  25
ENDBRANCH   6  24
TORSDOF 4
ENDMDL
MODEL 3
REMARK VINA RESULT:   -12.115      1.384      2.375
REMARK INTER + INTRA:         -16.174
REMARK INTER:                 -15.385
REMARK INTRA:                  -0.789
REMARK UNBOUND:                -1.226
REMARK  Name = CHEMBL4436402
REMARK  4 active torsions:
REMARK  status: ('A' for Active; 'I' for Inactive)
REMARK    1  A    between atoms: C_3  and  C_4
REMARK    2  A    between atoms: C_4  and  N_5
REMARK    3  A    between atoms: C_23  and  C_24
REMARK    4  A    between atoms: C_24  and  N_25
REMARK                            x       y       z     vdW  Elec       q    Type
REMARK                         _______ _______ _______ _____ _____    ______ ____
ROOT
ATOM      1  C   UNL     1      -4.374 -15.191 -58.945  0.00  0.00    +0.006 A 
ATOM      2  C   UNL     1      -3.393 -15.680 -59.811  0.00  0.00    +0.006 A 
ATOM      3  C   UNL     1      -2.315 -16.429 -59.319  0.00  0.00    -0.026 A 
ATOM      4  C   UNL     1      -2.254 -16.696 -57.946  0.00  0.00    +0.006 A 
ATOM      5  C   UNL     1      -3.235 -16.206 -57.080  0.00  0.00    +0.006 A 
ATOM      6  C   UNL     1      -4.313 -15.459 -57.571  0.00  0.00    -0.026 A 
ENDROOT
BRANCH   3   7
ATOM      7  C   UNL     1      -1.266 -16.968 -60.266  0.00  0.00    +0.176 C 
BRANCH   7   8
ATOM      8  N   UNL     1      -1.346 -18.413 -60.485  0.00  0.00    -0.287 NA
ATOM      9  C   UNL     1      -1.053 -18.855 -61.652  0.00  0.00    +0.021 C 
ATOM     10  C   UNL     1      -0.571 -18.159 -62.902  0.00  0.00    +0.045 C 
ATOM     11  C   UNL     1       0.673 -19.054 -63.219  0.00  0.00    +0.002 C 
ATOM     12  C   UNL     1       0.798 -18.986 -64.729  0.00  0.00    +0.008 C 
ATOM     13  C   UNL     1      -0.628 -19.439 -64.978  0.00  0.00    +0.002 C 
ATOM     14  C   UNL     1      -0.751 -20.761 -64.179  0.00  0.00    +0.005 C 
ATOM     15  C   UNL     1       0.164 -20.509 -62.973  0.00  0.00    +0.006 C 
ATOM     16  C   UNL     1      -1.068 -20.373 -62.039  0.00  0.00    +0.045 C 
ATOM     17  C   UNL     1      -2.000 -20.661 -63.269  0.00  0.00    +0.061 C 
ATOM     18  C   UNL     1      -2.701 -19.395 -63.790  0.00  0.00    +0.177 C 
ATOM     19  O   UNL     1      -3.452 -19.718 -64.968  0.00  0.00    -0.346 OA
ATOM     20  C   UNL     1      -4.750 -19.172 -64.737  0.00  0.00    +0.191 C 
ATOM     21  C   UNL     1      -4.877 -19.178 -63.239  0.00  0.00    +0.191 C 
ATOM     22  O   UNL     1      -3.564 -18.825 -62.809  0.00  0.00    -0.346 OA
ATOM     23  C   UNL     1      -1.505 -18.485 -64.126  0.00  0.00    +0.061 C 
ENDBRANCH   7   8
ENDBRANCH   3   7
BRANCH   6  24
ATOM     24  C   UNL     1      -5.369 -14.907 -56.640  0.00  0.00    +0.176 C 
BRANCH  24  25
ATOM     25  N   UNL     1      -5.147 -15.231 -55.229  0.00  0.00    -0.287 NA
ATOM     26  C   UNL     1      -6.070 -14.893 -54.404  0.00  0.00    +0.021 C 
ATOM     27  C   UNL     1      -6.016 -15.159 -52.923  0.00  0.00    +0.045 C 
ATOM     28  C   UNL     1      -7.413 -15.833 -52.735  0.00  0.00    +0.002 C 
ATOM     29  C   UNL     1      -7.802 -15.478 -51.313  0.00  0.00    +0.008 C 
ATOM     30  C   UNL     1      -7.629 -13.987 -51.522  0.00  0.00    +0.002 C 
ATOM     31  C   UNL     1      -8.503 -13.673 -52.762  0.00  0.00    +0.005 C 
ATOM     32  C   UNL     1      -8.373 -14.955 -53.596  0.00  0.00    +0.006 C 
ATOM     33  C   UNL     1      -7.471 -14.219 -54.627  0.00  0.00    +0.045 C 
ATOM     34  C   UNL     1      -7.635 -12.903 -53.784  0.00  0.00    +0.061 C 
ATOM     35  C   UNL     1      -6.374 -12.563 -52.976  0.00  0.00    +0.177 C 
ATOM     36  O   UNL     1      -6.628 -11.410 -52.160  0.00  0.00    -0.346 OA
ATOM     37  C   UNL     1      -5.494 -10.569 -52.360  0.00  0.00    +0.191 C 
ATOM     38  C   UNL     1      -5.054 -10.904 -53.757  0.00  0.00    +0.191 C 
ATOM     39  O   UNL     1      -5.262 -12.312 -53.831  0.00  0.00    -0.346 OA
ATOM     40  C   UNL     1      -6.200 -13.826 -52.108  0.00  0.00    +0.061 C 
ENDBRANCH  24  25
ENDBRANCH   6  24
TORSDOF 4
ENDMDL
