MODEL 1
REMARK VINA RESULT:   -13.649      0.000      0.000
REMARK INTER + INTRA:         -18.257
REMARK INTER:                 -16.841
REMARK INTRA:                  -1.416
REMARK UNBOUND:                -1.416
REMARK  Name = CHEMBL4436402
REMARK  4 active torsions:
REMARK  status: ('A' for Active; 'I' for Inactive)
REMARK    1  A    between atoms: C_3  and  C_4
REMARK    2  A    between atoms: C_4  and  N_5
REMARK    3  A    between atoms: C_23  and  C_24
REMARK    4  A    between atoms: C_24  and  N_25
REMARK                            x       y       z     vdW  Elec       q    Type
REMARK                         _______ _______ _______ _____ _____    ______ ____
ROOT
ATOM      1  C   UNL     1     -31.612   0.156  12.194  0.00  0.00    +0.006 A 
ATOM      2  C   UNL     1     -30.267  -0.204  12.311  0.00  0.00    +0.006 A 
ATOM      3  C   UNL     1     -29.542  -0.630  11.189  0.00  0.00    -0.026 A 
ATOM      4  C   UNL     1     -30.186  -0.664   9.946  0.00  0.00    +0.006 A 
ATOM      5  C   UNL     1     -31.531  -0.305   9.830  0.00  0.00    +0.006 A 
ATOM      6  C   UNL     1     -32.256   0.122  10.950  0.00  0.00    -0.026 A 
ENDROOT
BRANCH   3   7
ATOM      7  C   UNL     1     -28.082  -1.003  11.322  0.00  0.00    +0.176 C 
BRANCH   7   8
ATOM      8  N   UNL     1     -27.294  -0.057  12.114  0.00  0.00    -0.287 NA
ATOM      9  C   UNL     1     -26.883   1.009  11.533  0.00  0.00    +0.021 C 
ATOM     10  C   UNL     1     -27.096   1.540  10.136  0.00  0.00    +0.045 C 
ATOM     11  C   UNL     1     -27.582   2.984  10.492  0.00  0.00    +0.002 C 
ATOM     12  C   UNL     1     -27.128   3.826   9.316  0.00  0.00    +0.008 C 
ATOM     13  C   UNL     1     -25.678   3.395   9.427  0.00  0.00    +0.002 C 
ATOM     14  C   UNL     1     -25.304   3.695  10.900  0.00  0.00    +0.005 C 
ATOM     15  C   UNL     1     -26.624   3.434  11.639  0.00  0.00    +0.006 C 
ATOM     16  C   UNL     1     -26.050   2.127  12.248  0.00  0.00    +0.045 C 
ATOM     17  C   UNL     1     -24.692   2.412  11.514  0.00  0.00    +0.061 C 
ATOM     18  C   UNL     1     -24.482   1.513  10.285  0.00  0.00    +0.177 C 
ATOM     19  O   UNL     1     -23.274   1.898   9.614  0.00  0.00    -0.346 OA
ATOM     20  C   UNL     1     -22.555   0.681   9.424  0.00  0.00    +0.191 C 
ATOM     21  C   UNL     1     -23.032  -0.193  10.550  0.00  0.00    +0.191 C 
ATOM     22  O   UNL     1     -24.417   0.134  10.642  0.00  0.00    -0.346 OA
ATOM     23  C   UNL     1     -25.720   1.844   9.432  0.00  0.00    +0.061 C 
ENDBRANCH   7   8
ENDBRANCH   3   7
BRANCH   6  24
ATOM     24  C   UNL     1     -33.717   0.495  10.838  0.00  0.00    +0.176 C 
BRANCH  24  25
ATOM     25  N   UNL     1     -34.084   1.090   9.551  0.00  0.00    -0.287 NA
ATOM     26  C   UNL     1     -34.250   2.361   9.526  0.00  0.00    +0.021 C 
ATOM     27  C   UNL     1     -34.614   3.141   8.290  0.00  0.00    +0.045 C 
ATOM     28  C   UNL     1     -33.509   4.242   8.349  0.00  0.00    +0.002 C 
ATOM     29  C   UNL     1     -34.153   5.443   7.685  0.00  0.00    +0.008 C 
ATOM     30  C   UNL     1     -35.361   5.439   8.602  0.00  0.00    +0.002 C 
ATOM     31  C   UNL     1     -34.756   5.459  10.028  0.00  0.00    +0.005 C 
ATOM     32  C   UNL     1     -33.463   4.650   9.854  0.00  0.00    +0.006 C 
ATOM     33  C   UNL     1     -34.081   3.457  10.639  0.00  0.00    +0.045 C 
ATOM     34  C   UNL     1     -35.388   4.305  10.839  0.00  0.00    +0.061 C 
ATOM     35  C   UNL     1     -36.535   3.836   9.932  0.00  0.00    +0.177 C 
ATOM     36  O   UNL     1     -37.660   4.712  10.096  0.00  0.00    -0.346 OA
ATOM     37  C   UNL     1     -38.778   3.840  10.247  0.00  0.00    +0.191 C 
ATOM     38  C   UNL     1     -38.182   2.616  10.883  0.00  0.00    +0.191 C 
ATOM     39  O   UNL     1     -36.919   2.497  10.231  0.00  0.00    -0.346 OA
ATOM     40  C   UNL     1     -35.916   3.990   8.527  0.00  0.00    +0.061 C 
ENDBRANCH  24  25
ENDBRANCH   6  24
TORSDOF 4
ENDMDL
MODEL 2
REMARK VINA RESULT:   -13.479      1.380      9.929
REMARK INTER + INTRA:         -18.047
REMARK INTER:                 -16.959
REMARK INTRA:                  -1.088
REMARK UNBOUND:                -1.416
REMARK  Name = CHEMBL4436402
REMARK  4 active torsions:
REMARK  status: ('A' for Active; 'I' for Inactive)
REMARK    1  A    between atoms: C_3  and  C_4
REMARK    2  A    between atoms: C_4  and  N_5
REMARK    3  A    between atoms: C_23  and  C_24
REMARK    4  A    between atoms: C_24  and  N_25
REMARK                            x       y       z     vdW  Elec       q    Type
REMARK                         _______ _______ _______ _____ _____    ______ ____
ROOT
ATOM      1  C   UNL     1     -31.128   0.269  12.242  0.00  0.00    +0.006 A 
ATOM      2  C   UNL     1     -32.382   0.862  12.076  0.00  0.00    +0.006 A 
ATOM      3  C   UNL     1     -33.016   0.853  10.826  0.00  0.00    -0.026 A 
ATOM      4  C   UNL     1     -32.379   0.218   9.754  0.00  0.00    +0.006 A 
ATOM      5  C   UNL     1     -31.124  -0.374   9.919  0.00  0.00    +0.006 A 
ATOM      6  C   UNL     1     -30.490  -0.367  11.168  0.00  0.00    -0.026 A 
ENDROOT
BRANCH   3   7
ATOM      7  C   UNL     1     -34.381   1.484  10.660  0.00  0.00    +0.176 C 
BRANCH   7   8
ATOM      8  N   UNL     1     -34.488   2.832  11.221  0.00  0.00    -0.287 NA
ATOM      9  C   UNL     1     -35.459   3.567  10.822  0.00  0.00    +0.021 C 
ATOM     10  C   UNL     1     -36.604   3.298   9.875  0.00  0.00    +0.045 C 
ATOM     11  C   UNL     1     -37.790   3.764  10.783  0.00  0.00    +0.002 C 
ATOM     12  C   UNL     1     -38.834   4.255   9.800  0.00  0.00    +0.008 C 
ATOM     13  C   UNL     1     -37.892   5.226   9.115  0.00  0.00    +0.002 C 
ATOM     14  C   UNL     1     -37.322   6.084  10.272  0.00  0.00    +0.005 C 
ATOM     15  C   UNL     1     -37.271   5.083  11.436  0.00  0.00    +0.006 C 
ATOM     16  C   UNL     1     -35.723   5.021  11.342  0.00  0.00    +0.045 C 
ATOM     17  C   UNL     1     -35.777   6.067  10.172  0.00  0.00    +0.061 C 
ATOM     18  C   UNL     1     -35.532   5.428   8.795  0.00  0.00    +0.177 C 
ATOM     19  O   UNL     1     -35.695   6.423   7.774  0.00  0.00    -0.346 OA
ATOM     20  C   UNL     1     -34.529   6.308   6.960  0.00  0.00    +0.191 C 
ATOM     21  C   UNL     1     -33.490   5.769   7.903  0.00  0.00    +0.191 C 
ATOM     22  O   UNL     1     -34.232   4.851   8.702  0.00  0.00    -0.346 OA
ATOM     23  C   UNL     1     -36.653   4.375   8.728  0.00  0.00    +0.061 C 
ENDBRANCH   7   8
ENDBRANCH   3   7
BRANCH   6  24
ATOM     24  C   UNL     1     -29.124  -0.987  11.353  0.00  0.00    +0.176 C 
BRANCH  24  25
ATOM     25  N   UNL     1     -28.225  -0.209  12.209  0.00  0.00    -0.287 NA
ATOM     26  C   UNL     1     -27.555   0.728  11.646  0.00  0.00    +0.021 C 
ATOM     27  C   UNL     1     -26.597   1.635  12.374  0.00  0.00    +0.045 C 
ATOM     28  C   UNL     1     -27.131   3.017  11.879  0.00  0.00    +0.002 C 
ATOM     29  C   UNL     1     -25.904   3.908  11.892  0.00  0.00    +0.008 C 
ATOM     30  C   UNL     1     -25.087   2.980  11.014  0.00  0.00    +0.002 C 
ATOM     31  C   UNL     1     -25.979   2.752   9.768  0.00  0.00    +0.005 C 
ATOM     32  C   UNL     1     -27.395   2.797  10.358  0.00  0.00    +0.006 C 
ATOM     33  C   UNL     1     -27.546   1.260  10.168  0.00  0.00    +0.045 C 
ATOM     34  C   UNL     1     -26.107   1.228   9.536  0.00  0.00    +0.061 C 
ATOM     35  C   UNL     1     -25.059   0.646  10.496  0.00  0.00    +0.177 C 
ATOM     36  O   UNL     1     -23.759   0.738   9.893  0.00  0.00    -0.346 OA
ATOM     37  C   UNL     1     -23.176  -0.547  10.096  0.00  0.00    +0.191 C 
ATOM     38  C   UNL     1     -24.362  -1.469  10.116  0.00  0.00    +0.191 C 
ATOM     39  O   UNL     1     -25.346  -0.712  10.816  0.00  0.00    -0.346 OA
ATOM     40  C   UNL     1     -25.173   1.593  11.708  0.00  0.00    +0.061 C 
ENDBRANCH  24  25
ENDBRANCH   6  24
TORSDOF 4
ENDMDL
MODEL 3
REMARK VINA RESULT:   -13.415      1.332      2.598
REMARK INTER + INTRA:         -17.968
REMARK INTER:                 -16.493
REMARK INTRA:                  -1.475
REMARK UNBOUND:                -1.416
REMARK  Name = CHEMBL4436402
REMARK  4 active torsions:
REMARK  status: ('A' for Active; 'I' for Inactive)
REMARK    1  A    between atoms: C_3  and  C_4
REMARK    2  A    between atoms: C_4  and  N_5
REMARK    3  A    between atoms: C_23  and  C_24
REMARK    4  A    between atoms: C_24  and  N_25
REMARK                            x       y       z     vdW  Elec       q    Type
REMARK                         _______ _______ _______ _____ _____    ______ ____
ROOT
ATOM      1  C   UNL     1     -31.309  -0.404   9.756  0.00  0.00    +0.006 A 
ATOM      2  C   UNL     1     -29.968  -0.710  10.002  0.00  0.00    +0.006 A 
ATOM      3  C   UNL     1     -29.427  -0.565  11.286  0.00  0.00    -0.026 A 
ATOM      4  C   UNL     1     -30.262  -0.129  12.322  0.00  0.00    +0.006 A 
ATOM      5  C   UNL     1     -31.602   0.179  12.076  0.00  0.00    +0.006 A 
ATOM      6  C   UNL     1     -32.144   0.033  10.793  0.00  0.00    -0.026 A 
ENDROOT
BRANCH   3   7
ATOM      7  C   UNL     1     -27.978  -0.914  11.546  0.00  0.00    +0.176 C 
BRANCH   7   8
ATOM      8  N   UNL     1     -27.229   0.129  12.249  0.00  0.00    -0.287 NA
ATOM      9  C   UNL     1     -26.847   1.148  11.571  0.00  0.00    +0.021 C 
ATOM     10  C   UNL     1     -27.061   1.535  10.128  0.00  0.00    +0.045 C 
ATOM     11  C   UNL     1     -27.599   2.989  10.341  0.00  0.00    +0.002 C 
ATOM     12  C   UNL     1     -27.159   3.729   9.092  0.00  0.00    +0.008 C 
ATOM     13  C   UNL     1     -25.697   3.359   9.255  0.00  0.00    +0.002 C 
ATOM     14  C   UNL     1     -25.349   3.811  10.695  0.00  0.00    +0.005 C 
ATOM     15  C   UNL     1     -26.668   3.579  11.446  0.00  0.00    +0.006 C 
ATOM     16  C   UNL     1     -26.058   2.355  12.182  0.00  0.00    +0.045 C 
ATOM     17  C   UNL     1     -24.702   2.614  11.435  0.00  0.00    +0.061 C 
ATOM     18  C   UNL     1     -24.450   1.609  10.299  0.00  0.00    +0.177 C 
ATOM     19  O   UNL     1     -23.248   1.968   9.604  0.00  0.00    -0.346 OA
ATOM     20  C   UNL     1     -22.488   0.762   9.537  0.00  0.00    +0.191 C 
ATOM     21  C   UNL     1     -22.948  -0.015  10.738  0.00  0.00    +0.191 C 
ATOM     22  O   UNL     1     -24.344   0.274  10.787  0.00  0.00    -0.346 OA
ATOM     23  C   UNL     1     -25.689   1.816   9.409  0.00  0.00    +0.061 C 
ENDBRANCH   7   8
ENDBRANCH   3   7
BRANCH   6  24
ATOM     24  C   UNL     1     -33.588   0.381  10.512  0.00  0.00    +0.176 C 
BRANCH  24  25
ATOM     25  N   UNL     1     -34.056   1.588  11.199  0.00  0.00    -0.287 NA
ATOM     26  C   UNL     1     -34.621   2.485  10.477  0.00  0.00    +0.021 C 
ATOM     27  C   UNL     1     -35.174   3.778  11.018  0.00  0.00    +0.045 C 
ATOM     28  C   UNL     1     -36.602   3.726  10.388  0.00  0.00    +0.002 C 
ATOM     29  C   UNL     1     -36.973   5.185  10.204  0.00  0.00    +0.008 C 
ATOM     30  C   UNL     1     -35.731   5.512   9.399  0.00  0.00    +0.002 C 
ATOM     31  C   UNL     1     -35.733   4.467   8.255  0.00  0.00    +0.005 C 
ATOM     32  C   UNL     1     -36.353   3.235   8.928  0.00  0.00    +0.006 C 
ATOM     33  C   UNL     1     -34.971   2.523   8.947  0.00  0.00    +0.045 C 
ATOM     34  C   UNL     1     -34.351   3.775   8.229  0.00  0.00    +0.061 C 
ATOM     35  C   UNL     1     -33.515   4.642   9.182  0.00  0.00    +0.177 C 
ATOM     36  O   UNL     1     -33.062   5.814   8.486  0.00  0.00    -0.346 OA
ATOM     37  C   UNL     1     -31.677   5.914   8.811  0.00  0.00    +0.191 C 
ATOM     38  C   UNL     1     -31.266   4.486   9.028  0.00  0.00    +0.191 C 
ATOM     39  O   UNL     1     -32.395   3.922   9.691  0.00  0.00    -0.346 OA
ATOM     40  C   UNL     1     -34.546   5.010  10.268  0.00  0.00    +0.061 C 
ENDBRANCH  24  25
ENDBRANCH   6  24
TORSDOF 4
ENDMDL
