MODEL 1
REMARK VINA RESULT:   -13.418      0.000      0.000
REMARK INTER + INTRA:         -17.586
REMARK INTER:                 -16.555
REMARK INTRA:                  -1.031
REMARK UNBOUND:                -1.031
REMARK  Name = CHEMBL4436402
REMARK  4 active torsions:
REMARK  status: ('A' for Active; 'I' for Inactive)
REMARK    1  A    between atoms: C_3  and  C_4
REMARK    2  A    between atoms: C_4  and  N_5
REMARK    3  A    between atoms: C_23  and  C_24
REMARK    4  A    between atoms: C_24  and  N_25
REMARK                            x       y       z     vdW  Elec       q    Type
REMARK                         _______ _______ _______ _____ _____    ______ ____
ROOT
ATOM      1  C   UNL     1     -31.227   1.231  10.121  0.00  0.00    +0.006 A 
ATOM      2  C   UNL     1     -32.554   1.665  10.066  0.00  0.00    +0.006 A 
ATOM      3  C   UNL     1     -33.601   0.806  10.424  0.00  0.00    -0.026 A 
ATOM      4  C   UNL     1     -33.290  -0.488  10.858  0.00  0.00    +0.006 A 
ATOM      5  C   UNL     1     -31.963  -0.923  10.911  0.00  0.00    +0.006 A 
ATOM      6  C   UNL     1     -30.916  -0.064  10.555  0.00  0.00    -0.026 A 
ENDROOT
BRANCH   3   7
ATOM      7  C   UNL     1     -35.034   1.290  10.377  0.00  0.00    +0.176 C 
BRANCH   7   8
ATOM      8  N   UNL     1     -35.267   2.536  11.109  0.00  0.00    -0.287 NA
ATOM      9  C   UNL     1     -36.211   3.300  10.698  0.00  0.00    +0.021 C 
ATOM     10  C   UNL     1     -37.216   3.148   9.582  0.00  0.00    +0.045 C 
ATOM     11  C   UNL     1     -38.525   3.446  10.387  0.00  0.00    +0.002 C 
ATOM     12  C   UNL     1     -39.457   4.054   9.358  0.00  0.00    +0.008 C 
ATOM     13  C   UNL     1     -38.479   5.138   8.949  0.00  0.00    +0.002 C 
ATOM     14  C   UNL     1     -38.095   5.826  10.283  0.00  0.00    +0.005 C 
ATOM     15  C   UNL     1     -38.148   4.665  11.285  0.00  0.00    +0.006 C 
ATOM     16  C   UNL     1     -36.599   4.653  11.385  0.00  0.00    +0.045 C 
ATOM     17  C   UNL     1     -36.550   5.861  10.382  0.00  0.00    +0.061 C 
ATOM     18  C   UNL     1     -36.109   5.441   8.971  0.00  0.00    +0.177 C 
ATOM     19  O   UNL     1     -36.185   6.572   8.093  0.00  0.00    -0.346 OA
ATOM     20  C   UNL     1     -34.922   6.607   7.429  0.00  0.00    +0.191 C 
ATOM     21  C   UNL     1     -33.987   5.958   8.410  0.00  0.00    +0.191 C 
ATOM     22  O   UNL     1     -34.784   4.914   8.965  0.00  0.00    -0.346 OA
ATOM     23  C   UNL     1     -37.167   4.383   8.607  0.00  0.00    +0.061 C 
ENDBRANCH   7   8
ENDBRANCH   3   7
BRANCH   6  24
ATOM     24  C   UNL     1     -29.478  -0.530  10.591  0.00  0.00    +0.176 C 
BRANCH  24  25
ATOM     25  N   UNL     1     -28.720  -0.041  11.745  0.00  0.00    -0.287 NA
ATOM     26  C   UNL     1     -27.888   0.911  11.532  0.00  0.00    +0.021 C 
ATOM     27  C   UNL     1     -27.038   1.544  12.602  0.00  0.00    +0.045 C 
ATOM     28  C   UNL     1     -27.365   3.047  12.330  0.00  0.00    +0.002 C 
ATOM     29  C   UNL     1     -26.109   3.779  12.760  0.00  0.00    +0.008 C 
ATOM     30  C   UNL     1     -25.196   2.961  11.867  0.00  0.00    +0.002 C 
ATOM     31  C   UNL     1     -25.831   3.085  10.460  0.00  0.00    +0.005 C 
ATOM     32  C   UNL     1     -27.331   3.165  10.775  0.00  0.00    +0.006 C 
ATOM     33  C   UNL     1     -27.544   1.723  10.232  0.00  0.00    +0.045 C 
ATOM     34  C   UNL     1     -26.013   1.662   9.883  0.00  0.00    +0.061 C 
ATOM     35  C   UNL     1     -25.222   0.789  10.869  0.00  0.00    +0.177 C 
ATOM     36  O   UNL     1     -23.824   0.857  10.549  0.00  0.00    -0.346 OA
ATOM     37  C   UNL     1     -23.383  -0.499  10.571  0.00  0.00    +0.191 C 
ATOM     38  C   UNL     1     -24.608  -1.271  10.173  0.00  0.00    +0.191 C 
ATOM     39  O   UNL     1     -25.660  -0.567  10.828  0.00  0.00    -0.346 OA
ATOM     40  C   UNL     1     -25.514   1.481  12.216  0.00  0.00    +0.061 C 
ENDBRANCH  24  25
ENDBRANCH   6  24
TORSDOF 4
ENDMDL
MODEL 2
REMARK VINA RESULT:   -13.383      1.522     10.031
REMARK INTER + INTRA:         -17.543
REMARK INTER:                 -16.140
REMARK INTRA:                  -1.403
REMARK UNBOUND:                -1.031
REMARK  Name = CHEMBL4436402
REMARK  4 active torsions:
REMARK  status: ('A' for Active; 'I' for Inactive)
REMARK    1  A    between atoms: C_3  and  C_4
REMARK    2  A    between atoms: C_4  and  N_5
REMARK    3  A    between atoms: C_23  and  C_24
REMARK    4  A    between atoms: C_24  and  N_25
REMARK                            x       y       z     vdW  Elec       q    Type
REMARK                         _______ _______ _______ _____ _____    ______ ____
ROOT
ATOM      1  C   UNL     1     -31.897   0.033  12.353  0.00  0.00    +0.006 A 
ATOM      2  C   UNL     1     -30.565  -0.292  12.624  0.00  0.00    +0.006 A 
ATOM      3  C   UNL     1     -29.727  -0.772  11.610  0.00  0.00    -0.026 A 
ATOM      4  C   UNL     1     -30.243  -0.899  10.314  0.00  0.00    +0.006 A 
ATOM      5  C   UNL     1     -31.575  -0.576  10.043  0.00  0.00    +0.006 A 
ATOM      6  C   UNL     1     -32.413  -0.094  11.056  0.00  0.00    -0.026 A 
ENDROOT
BRANCH   3   7
ATOM      7  C   UNL     1     -28.282  -1.106  11.909  0.00  0.00    +0.176 C 
BRANCH   7   8
ATOM      8  N   UNL     1     -27.570  -0.063  12.651  0.00  0.00    -0.287 NA
ATOM      9  C   UNL     1     -27.233   0.996  12.012  0.00  0.00    +0.021 C 
ATOM     10  C   UNL     1     -27.472   1.432  10.587  0.00  0.00    +0.045 C 
ATOM     11  C   UNL     1     -28.064   2.855  10.861  0.00  0.00    +0.002 C 
ATOM     12  C   UNL     1     -27.662   3.661   9.642  0.00  0.00    +0.008 C 
ATOM     13  C   UNL     1     -26.186   3.343   9.782  0.00  0.00    +0.002 C 
ATOM     14  C   UNL     1     -25.846   3.750  11.237  0.00  0.00    +0.005 C 
ATOM     15  C   UNL     1     -27.150   3.435  11.985  0.00  0.00    +0.006 C 
ATOM     16  C   UNL     1     -26.488   2.208  12.667  0.00  0.00    +0.045 C 
ATOM     17  C   UNL     1     -25.147   2.550  11.924  0.00  0.00    +0.061 C 
ATOM     18  C   UNL     1     -24.865   1.602  10.747  0.00  0.00    +0.177 C 
ATOM     19  O   UNL     1     -23.682   2.037  10.061  0.00  0.00    -0.346 OA
ATOM     20  C   UNL     1     -22.876   0.865   9.941  0.00  0.00    +0.191 C 
ATOM     21  C   UNL     1     -23.297   0.023  11.112  0.00  0.00    +0.191 C 
ATOM     22  O   UNL     1     -24.703   0.254  11.180  0.00  0.00    -0.346 OA
ATOM     23  C   UNL     1     -26.117   1.796   9.873  0.00  0.00    +0.061 C 
ENDBRANCH   7   8
ENDBRANCH   3   7
BRANCH   6  24
ATOM     24  C   UNL     1     -33.861   0.241  10.777  0.00  0.00    +0.176 C 
BRANCH  24  25
ATOM     25  N   UNL     1     -34.068   1.026   9.558  0.00  0.00    -0.287 NA
ATOM     26  C   UNL     1     -34.324   2.274   9.708  0.00  0.00    +0.021 C 
ATOM     27  C   UNL     1     -34.549   3.232   8.568  0.00  0.00    +0.045 C 
ATOM     28  C   UNL     1     -33.553   4.361   8.984  0.00  0.00    +0.002 C 
ATOM     29  C   UNL     1     -34.175   5.623   8.421  0.00  0.00    +0.008 C 
ATOM     30  C   UNL     1     -35.507   5.405   9.113  0.00  0.00    +0.002 C 
ATOM     31  C   UNL     1     -35.133   5.215  10.604  0.00  0.00    +0.005 C 
ATOM     32  C   UNL     1     -33.772   4.510  10.521  0.00  0.00    +0.006 C 
ATOM     33  C   UNL     1     -34.412   3.173  10.993  0.00  0.00    +0.045 C 
ATOM     34  C   UNL     1     -35.795   3.910  11.106  0.00  0.00    +0.061 C 
ATOM     35  C   UNL     1     -36.749   3.546   9.959  0.00  0.00    +0.177 C 
ATOM     36  O   UNL     1     -37.949   4.326  10.072  0.00  0.00    -0.346 OA
ATOM     37  C   UNL     1     -39.007   3.387   9.895  0.00  0.00    +0.191 C 
ATOM     38  C   UNL     1     -38.426   2.104  10.418  0.00  0.00    +0.191 C 
ATOM     39  O   UNL     1     -37.073   2.158   9.974  0.00  0.00    -0.346 OA
ATOM     40  C   UNL     1     -35.933   3.965   8.719  0.00  0.00    +0.061 C 
ENDBRANCH  24  25
ENDBRANCH   6  24
TORSDOF 4
ENDMDL
MODEL 3
REMARK VINA RESULT:   -13.018      1.806      3.561
REMARK INTER + INTRA:         -17.092
REMARK INTER:                 -15.301
REMARK INTRA:                  -1.791
REMARK UNBOUND:                -1.031
REMARK  Name = CHEMBL4436402
REMARK  4 active torsions:
REMARK  status: ('A' for Active; 'I' for Inactive)
REMARK    1  A    between atoms: C_3  and  C_4
REMARK    2  A    between atoms: C_4  and  N_5
REMARK    3  A    between atoms: C_23  and  C_24
REMARK    4  A    between atoms: C_24  and  N_25
REMARK                            x       y       z     vdW  Elec       q    Type
REMARK                         _______ _______ _______ _____ _____    ______ ____
ROOT
ATOM      1  C   UNL     1     -31.960  -0.879  11.038  0.00  0.00    +0.006 A 
ATOM      2  C   UNL     1     -33.121  -0.122  10.864  0.00  0.00    +0.006 A 
ATOM      3  C   UNL     1     -33.372   0.996  11.671  0.00  0.00    -0.026 A 
ATOM      4  C   UNL     1     -32.426   1.352  12.640  0.00  0.00    +0.006 A 
ATOM      5  C   UNL     1     -31.265   0.594  12.814  0.00  0.00    +0.006 A 
ATOM      6  C   UNL     1     -31.013  -0.522  12.007  0.00  0.00    -0.026 A 
ENDROOT
BRANCH   3   7
ATOM      7  C   UNL     1     -34.625   1.819  11.465  0.00  0.00    +0.176 C 
BRANCH   7   8
ATOM      8  N   UNL     1     -35.045   1.925  10.066  0.00  0.00    -0.287 NA
ATOM      9  C   UNL     1     -34.900   3.059   9.486  0.00  0.00    +0.021 C 
ATOM     10  C   UNL     1     -34.311   4.365   9.960  0.00  0.00    +0.045 C 
ATOM     11  C   UNL     1     -33.320   4.632   8.778  0.00  0.00    +0.002 C 
ATOM     12  C   UNL     1     -33.232   6.144   8.708  0.00  0.00    +0.008 C 
ATOM     13  C   UNL     1     -34.731   6.336   8.585  0.00  0.00    +0.002 C 
ATOM     14  C   UNL     1     -35.132   5.437   7.389  0.00  0.00    +0.005 C 
ATOM     15  C   UNL     1     -34.144   4.267   7.504  0.00  0.00    +0.006 C 
ATOM     16  C   UNL     1     -35.281   3.328   7.991  0.00  0.00    +0.045 C 
ATOM     17  C   UNL     1     -36.294   4.518   7.843  0.00  0.00    +0.061 C 
ATOM     18  C   UNL     1     -36.697   5.124   9.197  0.00  0.00    +0.177 C 
ATOM     19  O   UNL     1     -37.541   6.263   8.975  0.00  0.00    -0.346 OA
ATOM     20  C   UNL     1     -38.668   6.055   9.825  0.00  0.00    +0.191 C 
ATOM     21  C   UNL     1     -38.744   4.559   9.955  0.00  0.00    +0.191 C 
ATOM     22  O   UNL     1     -37.372   4.177  10.021  0.00  0.00    -0.346 OA
ATOM     23  C   UNL     1     -35.335   5.547   9.776  0.00  0.00    +0.061 C 
ENDBRANCH   7   8
ENDBRANCH   3   7
BRANCH   6  24
ATOM     24  C   UNL     1     -29.769  -1.360  12.201  0.00  0.00    +0.176 C 
BRANCH  24  25
ATOM     25  N   UNL     1     -28.746  -1.158  11.172  0.00  0.00    -0.287 NA
ATOM     26  C   UNL     1     -27.928  -0.187  11.351  0.00  0.00    +0.021 C 
ATOM     27  C   UNL     1     -26.807   0.157  10.405  0.00  0.00    +0.045 C 
ATOM     28  C   UNL     1     -25.626   0.225  11.424  0.00  0.00    +0.002 C 
ATOM     29  C   UNL     1     -24.674   1.235  10.813  0.00  0.00    +0.008 C 
ATOM     30  C   UNL     1     -25.726   2.320  10.699  0.00  0.00    +0.002 C 
ATOM     31  C   UNL     1     -26.309   2.436  12.130  0.00  0.00    +0.005 C 
ATOM     32  C   UNL     1     -26.224   0.992  12.643  0.00  0.00    +0.006 C 
ATOM     33  C   UNL     1     -27.768   0.838  12.530  0.00  0.00    +0.045 C 
ATOM     34  C   UNL     1     -27.849   2.327  12.035  0.00  0.00    +0.061 C 
ATOM     35  C   UNL     1     -28.108   2.429  10.525  0.00  0.00    +0.177 C 
ATOM     36  O   UNL     1     -28.072   3.809  10.128  0.00  0.00    -0.346 OA
ATOM     37  C   UNL     1     -29.227   3.978   9.308  0.00  0.00    +0.191 C 
ATOM     38  C   UNL     1     -30.197   2.974   9.862  0.00  0.00    +0.191 C 
ATOM     39  O   UNL     1     -29.366   1.859  10.174  0.00  0.00    -0.346 OA
ATOM     40  C   UNL     1     -26.907   1.656   9.941  0.00  0.00    +0.061 C 
ENDBRANCH  24  25
ENDBRANCH   6  24
TORSDOF 4
ENDMDL
