MODEL 1
REMARK VINA RESULT:   -13.127      0.000      0.000
REMARK INTER + INTRA:         -16.641
REMARK INTER:                 -16.581
REMARK INTRA:                  -0.060
REMARK UNBOUND:                -0.060
REMARK  Name = CHEMBL13933
REMARK  5 active torsions:
REMARK  status: ('A' for Active; 'I' for Inactive)
REMARK    1  A    between atoms: N_1  and  C_2
REMARK    2  A    between atoms: N_11  and  C_12
REMARK    3  A    between atoms: C_12  and  C_13
REMARK    4  A    between atoms: C_16  and  C_17
REMARK    5  A    between atoms: C_22  and  C_23
REMARK                            x       y       z     vdW  Elec       q    Type
REMARK                         _______ _______ _______ _____ _____    ______ ____
ROOT
ATOM      1  C   UNL     1      -4.069 -12.130 -52.125  0.00  0.00    -0.030 A 
ATOM      2  C   UNL     1      -3.392 -13.356 -52.087  0.00  0.00    +0.006 A 
ATOM      3  C   UNL     1      -2.276 -13.528 -51.265  0.00  0.00    +0.009 A 
ATOM      4  C   UNL     1      -1.817 -12.486 -50.448  0.00  0.00    -0.017 A 
ATOM      5  C   UNL     1      -2.527 -11.278 -50.444  0.00  0.00    +0.009 A 
ATOM      6  C   UNL     1      -3.641 -11.102 -51.270  0.00  0.00    +0.006 A 
ENDROOT
BRANCH   4   7
ATOM      7  C   UNL     1      -0.620 -12.658 -49.613  0.00  0.00    -0.007 A 
ATOM      8  C   UNL     1       0.637 -12.374 -50.189  0.00  0.00    +0.009 A 
ATOM      9  C   UNL     1       1.813 -12.470 -49.445  0.00  0.00    +0.001 A 
ATOM     10  C   UNL     1       1.758 -12.846 -48.109  0.00  0.00    +0.001 A 
ATOM     11  C   UNL     1       0.527 -13.134 -47.520  0.00  0.00    +0.012 A 
ATOM     12  C   UNL     1      -0.671 -13.054 -48.257  0.00  0.00    +0.030 A 
BRANCH  12  13
ATOM     13  C   UNL     1      -1.922 -13.396 -47.581  0.00  0.00    +0.205 A 
ATOM     14  N   UNL     1      -3.170 -13.172 -48.120  0.00  0.00    -0.108 NA
ATOM     15  N   UNL     1      -4.057 -13.624 -47.245  0.00  0.00    -0.049 NA
ATOM     16  N   UNL     1      -3.320 -14.099 -46.239  0.00  0.00    -0.176 N 
ATOM     17  N   UNL     1      -1.990 -14.013 -46.386  0.00  0.00    -0.133 NA
ATOM     18  H   UNL     1      -3.747 -14.507 -45.413  0.00  0.00    +0.214 HD
ENDBRANCH  12  13
ENDBRANCH   4   7
BRANCH   1  19
ATOM     19  C   UNL     1      -5.257 -11.903 -53.038  0.00  0.00    +0.148 C 
BRANCH  19  29
ATOM     20  C   UNL     1      -7.881 -14.516 -51.904  0.00  0.00    +0.139 C 
ATOM     21  C   UNL     1      -9.048 -14.577 -52.888  0.00  0.00    +0.032 C 
ATOM     22  C   UNL     1      -8.831 -13.818 -54.187  0.00  0.00    +0.039 C 
ATOM     23  C   UNL     1      -7.535 -14.185 -54.853  0.00  0.00    -0.026 A 
ATOM     24  C   UNL     1      -7.578 -14.927 -56.048  0.00  0.00    +0.005 A 
ATOM     25  C   UNL     1      -6.410 -15.236 -56.739  0.00  0.00    +0.000 A 
ATOM     26  C   UNL     1      -5.186 -14.804 -56.245  0.00  0.00    +0.002 A 
ATOM     27  C   UNL     1      -5.131 -14.068 -55.059  0.00  0.00    +0.024 A 
ATOM     28  C   UNL     1      -6.295 -13.759 -54.335  0.00  0.00    +0.040 A 
ATOM     29  N   UNL     1      -6.206 -13.027 -53.106  0.00  0.00    -0.266 N 
ATOM     30  C   UNL     1      -7.048 -13.216 -52.005  0.00  0.00    +0.237 C 
ATOM     31  O   UNL     1      -7.101 -12.406 -51.073  0.00  0.00    -0.274 OA
BRANCH  20  32
ATOM     32  N   UNL     1      -7.016 -15.718 -51.968  0.00  0.00    -0.320 NA
ATOM     33  H   UNL     1      -6.095 -15.497 -51.590  0.00  0.00    +0.119 HD
ATOM     34  H   UNL     1      -7.401 -16.429 -51.347  0.00  0.00    +0.119 HD
ENDBRANCH  20  32
ENDBRANCH  19  29
ENDBRANCH   1  19
TORSDOF 5
ENDMDL
MODEL 2
REMARK VINA RESULT:   -11.955      2.146      2.695
REMARK INTER + INTRA:         -15.159
REMARK INTER:                 -15.424
REMARK INTRA:                   0.265
REMARK UNBOUND:                -0.060
REMARK  Name = CHEMBL13933
REMARK  5 active torsions:
REMARK  status: ('A' for Active; 'I' for Inactive)
REMARK    1  A    between atoms: N_1  and  C_2
REMARK    2  A    between atoms: N_11  and  C_12
REMARK    3  A    between atoms: C_12  and  C_13
REMARK    4  A    between atoms: C_16  and  C_17
REMARK    5  A    between atoms: C_22  and  C_23
REMARK                            x       y       z     vdW  Elec       q    Type
REMARK                         _______ _______ _______ _____ _____    ______ ____
ROOT
ATOM      1  C   UNL     1      -3.763 -12.170 -51.828  0.00  0.00    -0.030 A 
ATOM      2  C   UNL     1      -3.273 -13.396 -51.359  0.00  0.00    +0.006 A 
ATOM      3  C   UNL     1      -2.436 -13.448 -50.241  0.00  0.00    +0.009 A 
ATOM      4  C   UNL     1      -2.081 -12.279 -49.554  0.00  0.00    -0.017 A 
ATOM      5  C   UNL     1      -2.615 -11.059 -49.990  0.00  0.00    +0.009 A 
ATOM      6  C   UNL     1      -3.448 -11.005 -51.112  0.00  0.00    +0.006 A 
ENDROOT
BRANCH   4   7
ATOM      7  C   UNL     1      -1.170 -12.333 -48.402  0.00  0.00    -0.007 A 
ATOM      8  C   UNL     1      -1.686 -12.003 -47.132  0.00  0.00    +0.009 A 
ATOM      9  C   UNL     1      -0.894 -12.076 -45.985  0.00  0.00    +0.001 A 
ATOM     10  C   UNL     1       0.430 -12.485 -46.085  0.00  0.00    +0.001 A 
ATOM     11  C   UNL     1       0.962 -12.814 -47.332  0.00  0.00    +0.012 A 
ATOM     12  C   UNL     1       0.182 -12.735 -48.502  0.00  0.00    +0.030 A 
BRANCH  12  13
ATOM     13  C   UNL     1       0.814 -13.068 -49.778  0.00  0.00    +0.205 A 
ATOM     14  N   UNL     1       2.040 -12.581 -50.177  0.00  0.00    -0.108 NA
ATOM     15  N   UNL     1       2.300 -13.109 -51.363  0.00  0.00    -0.049 NA
ATOM     16  N   UNL     1       1.244 -13.883 -51.622  0.00  0.00    -0.176 N 
ATOM     17  N   UNL     1       0.294 -13.926 -50.677  0.00  0.00    -0.133 NA
ATOM     18  H   UNL     1       1.171 -14.413 -52.486  0.00  0.00    +0.214 HD
ENDBRANCH  12  13
ENDBRANCH   4   7
BRANCH   1  19
ATOM     19  C   UNL     1      -4.638 -12.081 -53.062  0.00  0.00    +0.148 C 
BRANCH  19  29
ATOM     20  C   UNL     1      -7.701 -14.153 -51.913  0.00  0.00    +0.139 C 
ATOM     21  C   UNL     1      -8.798 -14.136 -52.975  0.00  0.00    +0.032 C 
ATOM     22  C   UNL     1      -8.385 -13.548 -54.314  0.00  0.00    +0.039 C 
ATOM     23  C   UNL     1      -7.122 -14.166 -54.843  0.00  0.00    -0.026 A 
ATOM     24  C   UNL     1      -7.203 -15.007 -55.969  0.00  0.00    +0.005 A 
ATOM     25  C   UNL     1      -6.056 -15.552 -56.538  0.00  0.00    +0.000 A 
ATOM     26  C   UNL     1      -4.814 -15.260 -55.991  0.00  0.00    +0.002 A 
ATOM     27  C   UNL     1      -4.720 -14.428 -54.872  0.00  0.00    +0.024 A 
ATOM     28  C   UNL     1      -5.866 -13.881 -54.270  0.00  0.00    +0.040 A 
ATOM     29  N   UNL     1      -5.743 -13.053 -53.106  0.00  0.00    -0.266 N 
ATOM     30  C   UNL     1      -6.672 -13.007 -52.062  0.00  0.00    +0.237 C 
ATOM     31  O   UNL     1      -6.658 -12.111 -51.210  0.00  0.00    -0.274 OA
BRANCH  20  32
ATOM     32  N   UNL     1      -7.030 -15.470 -51.805  0.00  0.00    -0.320 NA
ATOM     33  H   UNL     1      -7.010 -15.765 -50.828  0.00  0.00    +0.119 HD
ATOM     34  H   UNL     1      -7.599 -16.166 -52.288  0.00  0.00    +0.119 HD
ENDBRANCH  20  32
ENDBRANCH  19  29
ENDBRANCH   1  19
TORSDOF 5
ENDMDL
MODEL 3
REMARK VINA RESULT:   -11.764      1.530      2.621
REMARK INTER + INTRA:         -14.918
REMARK INTER:                 -13.778
REMARK INTRA:                  -1.141
REMARK UNBOUND:                -0.060
REMARK  Name = CHEMBL13933
REMARK  5 active torsions:
REMARK  status: ('A' for Active; 'I' for Inactive)
REMARK    1  A    between atoms: N_1  and  C_2
REMARK    2  A    between atoms: N_11  and  C_12
REMARK    3  A    between atoms: C_12  and  C_13
REMARK    4  A    between atoms: C_16  and  C_17
REMARK    5  A    between atoms: C_22  and  C_23
REMARK                            x       y       z     vdW  Elec       q    Type
REMARK                         _______ _______ _______ _____ _____    ______ ____
ROOT
ATOM      1  C   UNL     1      -4.309 -11.483 -51.800  0.00  0.00    -0.030 A 
ATOM      2  C   UNL     1      -3.722 -12.746 -51.941  0.00  0.00    +0.006 A 
ATOM      3  C   UNL     1      -2.532 -13.057 -51.278  0.00  0.00    +0.009 A 
ATOM      4  C   UNL     1      -1.908 -12.118 -50.444  0.00  0.00    -0.017 A 
ATOM      5  C   UNL     1      -2.525 -10.874 -50.260  0.00  0.00    +0.009 A 
ATOM      6  C   UNL     1      -3.712 -10.561 -50.927  0.00  0.00    +0.006 A 
ENDROOT
BRANCH   4   7
ATOM      7  C   UNL     1      -0.637 -12.434 -49.778  0.00  0.00    -0.007 A 
ATOM      8  C   UNL     1       0.557 -12.265 -50.511  0.00  0.00    +0.009 A 
ATOM      9  C   UNL     1       1.804 -12.501 -49.931  0.00  0.00    +0.001 A 
ATOM     10  C   UNL     1       1.884 -12.906 -48.605  0.00  0.00    +0.001 A 
ATOM     11  C   UNL     1       0.716 -13.082 -47.861  0.00  0.00    +0.012 A 
ATOM     12  C   UNL     1      -0.552 -12.861 -48.432  0.00  0.00    +0.030 A 
BRANCH  12  13
ATOM     13  C   UNL     1      -1.733 -13.091 -47.601  0.00  0.00    +0.205 A 
ATOM     14  N   UNL     1      -2.263 -12.150 -46.745  0.00  0.00    -0.108 NA
ATOM     15  N   UNL     1      -3.331 -12.697 -46.182  0.00  0.00    -0.049 NA
ATOM     16  N   UNL     1      -3.402 -13.917 -46.718  0.00  0.00    -0.176 N 
ATOM     17  N   UNL     1      -2.460 -14.224 -47.621  0.00  0.00    -0.133 NA
ATOM     18  H   UNL     1      -4.135 -14.571 -46.456  0.00  0.00    +0.214 HD
ENDBRANCH  12  13
ENDBRANCH   4   7
BRANCH   1  19
ATOM     19  C   UNL     1      -5.577 -11.105 -52.541  0.00  0.00    +0.148 C 
BRANCH  19  29
ATOM     20  C   UNL     1      -6.658 -12.767 -55.868  0.00  0.00    +0.139 C 
ATOM     21  C   UNL     1      -6.028 -14.150 -56.015  0.00  0.00    +0.032 C 
ATOM     22  C   UNL     1      -5.340 -14.677 -54.766  0.00  0.00    +0.039 C 
ATOM     23  C   UNL     1      -6.225 -14.605 -53.553  0.00  0.00    -0.026 A 
ATOM     24  C   UNL     1      -6.715 -15.805 -53.005  0.00  0.00    +0.005 A 
ATOM     25  C   UNL     1      -7.485 -15.797 -51.845  0.00  0.00    +0.000 A 
ATOM     26  C   UNL     1      -7.769 -14.592 -51.219  0.00  0.00    +0.002 A 
ATOM     27  C   UNL     1      -7.290 -13.394 -51.754  0.00  0.00    +0.024 A 
ATOM     28  C   UNL     1      -6.526 -13.375 -52.934  0.00  0.00    +0.040 A 
ATOM     29  N   UNL     1      -6.071 -12.129 -53.477  0.00  0.00    -0.266 N 
ATOM     30  C   UNL     1      -5.936 -11.859 -54.843  0.00  0.00    +0.237 C 
ATOM     31  O   UNL     1      -5.312 -10.876 -55.260  0.00  0.00    -0.274 OA
BRANCH  20  32
ATOM     32  N   UNL     1      -8.115 -12.826 -55.605  0.00  0.00    -0.320 NA
ATOM     33  H   UNL     1      -8.319 -12.388 -54.707  0.00  0.00    +0.119 HD
ATOM     34  H   UNL     1      -8.595 -12.257 -56.302  0.00  0.00    +0.119 HD
ENDBRANCH  20  32
ENDBRANCH  19  29
ENDBRANCH   1  19
TORSDOF 5
ENDMDL
