MODEL 1
REMARK VINA RESULT:   -12.787      0.000      0.000
REMARK INTER + INTRA:         -16.383
REMARK INTER:                 -16.151
REMARK INTRA:                  -0.232
REMARK UNBOUND:                -0.232
REMARK  Name = CHEMBL13933
REMARK  5 active torsions:
REMARK  status: ('A' for Active; 'I' for Inactive)
REMARK    1  A    between atoms: N_1  and  C_2
REMARK    2  A    between atoms: N_11  and  C_12
REMARK    3  A    between atoms: C_12  and  C_13
REMARK    4  A    between atoms: C_16  and  C_17
REMARK    5  A    between atoms: C_22  and  C_23
REMARK                            x       y       z     vdW  Elec       q    Type
REMARK                         _______ _______ _______ _____ _____    ______ ____
ROOT
ATOM      1  C   UNL     1     -33.886   5.797   7.385  0.00  0.00    -0.030 A 
ATOM      2  C   UNL     1     -33.587   6.605   8.489  0.00  0.00    +0.006 A 
ATOM      3  C   UNL     1     -32.750   7.716   8.353  0.00  0.00    +0.009 A 
ATOM      4  C   UNL     1     -32.205   8.057   7.107  0.00  0.00    -0.017 A 
ATOM      5  C   UNL     1     -32.549   7.281   5.992  0.00  0.00    +0.009 A 
ATOM      6  C   UNL     1     -33.382   6.166   6.129  0.00  0.00    +0.006 A 
ENDROOT
BRANCH   4   7
ATOM      7  C   UNL     1     -31.295   9.203   6.975  0.00  0.00    -0.007 A 
ATOM      8  C   UNL     1     -31.816  10.408   6.457  0.00  0.00    +0.009 A 
ATOM      9  C   UNL     1     -31.024  11.551   6.345  0.00  0.00    +0.001 A 
ATOM     10  C   UNL     1     -29.697  11.516   6.753  0.00  0.00    +0.001 A 
ATOM     11  C   UNL     1     -29.160  10.334   7.266  0.00  0.00    +0.012 A 
ATOM     12  C   UNL     1     -29.940   9.166   7.375  0.00  0.00    +0.030 A 
BRANCH  12  13
ATOM     13  C   UNL     1     -29.303   7.957   7.896  0.00  0.00    +0.205 A 
ATOM     14  N   UNL     1     -27.955   7.694   7.790  0.00  0.00    -0.108 NA
ATOM     15  N   UNL     1     -27.738   6.532   8.389  0.00  0.00    -0.049 NA
ATOM     16  N   UNL     1     -28.940   6.155   8.828  0.00  0.00    -0.176 N 
ATOM     17  N   UNL     1     -29.954   6.996   8.580  0.00  0.00    -0.133 NA
ATOM     18  H   UNL     1     -29.074   5.280   9.327  0.00  0.00    +0.214 HD
ENDBRANCH  12  13
ENDBRANCH   4   7
BRANCH   1  19
ATOM     19  C   UNL     1     -34.757   4.563   7.513  0.00  0.00    +0.148 C 
BRANCH  19  29
ATOM     20  C   UNL     1     -34.613   2.555  10.822  0.00  0.00    +0.139 C 
ATOM     21  C   UNL     1     -34.480   3.491  12.020  0.00  0.00    +0.032 C 
ATOM     22  C   UNL     1     -34.678   4.966  11.707  0.00  0.00    +0.039 C 
ATOM     23  C   UNL     1     -35.952   5.223  10.951  0.00  0.00    -0.026 A 
ATOM     24  C   UNL     1     -37.004   5.886  11.611  0.00  0.00    +0.005 A 
ATOM     25  C   UNL     1     -38.179   6.205  10.937  0.00  0.00    +0.000 A 
ATOM     26  C   UNL     1     -38.315   5.870   9.597  0.00  0.00    +0.002 A 
ATOM     27  C   UNL     1     -37.278   5.210   8.933  0.00  0.00    +0.024 A 
ATOM     28  C   UNL     1     -36.090   4.861   9.596  0.00  0.00    +0.040 A 
ATOM     29  N   UNL     1     -35.054   4.159   8.897  0.00  0.00    -0.266 N 
ATOM     30  C   UNL     1     -34.210   3.204   9.475  0.00  0.00    +0.237 C 
ATOM     31  O   UNL     1     -33.182   2.811   8.914  0.00  0.00    -0.274 OA
BRANCH  20  32
ATOM     32  N   UNL     1     -35.950   1.922  10.736  0.00  0.00    -0.320 NA
ATOM     33  H   UNL     1     -36.347   2.083   9.811  0.00  0.00    +0.119 HD
ATOM     34  H   UNL     1     -35.837   0.911  10.812  0.00  0.00    +0.119 HD
ENDBRANCH  20  32
ENDBRANCH  19  29
ENDBRANCH   1  19
TORSDOF 5
ENDMDL
MODEL 2
REMARK VINA RESULT:   -12.580      1.474      2.828
REMARK INTER + INTRA:         -16.122
REMARK INTER:                 -16.203
REMARK INTRA:                   0.082
REMARK UNBOUND:                -0.232
REMARK  Name = CHEMBL13933
REMARK  5 active torsions:
REMARK  status: ('A' for Active; 'I' for Inactive)
REMARK    1  A    between atoms: N_1  and  C_2
REMARK    2  A    between atoms: N_11  and  C_12
REMARK    3  A    between atoms: C_12  and  C_13
REMARK    4  A    between atoms: C_16  and  C_17
REMARK    5  A    between atoms: C_22  and  C_23
REMARK                            x       y       z     vdW  Elec       q    Type
REMARK                         _______ _______ _______ _____ _____    ______ ____
ROOT
ATOM      1  C   UNL     1     -34.206   6.072   7.256  0.00  0.00    -0.030 A 
ATOM      2  C   UNL     1     -33.568   6.350   6.041  0.00  0.00    +0.006 A 
ATOM      3  C   UNL     1     -32.620   7.372   5.951  0.00  0.00    +0.009 A 
ATOM      4  C   UNL     1     -32.273   8.132   7.077  0.00  0.00    -0.017 A 
ATOM      5  C   UNL     1     -32.871   7.818   8.305  0.00  0.00    +0.009 A 
ATOM      6  C   UNL     1     -33.823   6.799   8.394  0.00  0.00    +0.006 A 
ENDROOT
BRANCH   4   7
ATOM      7  C   UNL     1     -31.304   9.231   6.971  0.00  0.00    -0.007 A 
ATOM      8  C   UNL     1     -31.745  10.454   6.423  0.00  0.00    +0.009 A 
ATOM      9  C   UNL     1     -30.895  11.557   6.333  0.00  0.00    +0.001 A 
ATOM     10  C   UNL     1     -29.588  11.462   6.793  0.00  0.00    +0.001 A 
ATOM     11  C   UNL     1     -29.129  10.261   7.336  0.00  0.00    +0.012 A 
ATOM     12  C   UNL     1     -29.968   9.133   7.425  0.00  0.00    +0.030 A 
BRANCH  12  13
ATOM     13  C   UNL     1     -29.412   7.901   7.981  0.00  0.00    +0.205 A 
ATOM     14  N   UNL     1     -28.068   7.596   7.977  0.00  0.00    -0.108 NA
ATOM     15  N   UNL     1     -27.935   6.423   8.578  0.00  0.00    -0.049 NA
ATOM     16  N   UNL     1     -29.179   6.080   8.918  0.00  0.00    -0.176 N 
ATOM     17  N   UNL     1     -30.143   6.955   8.601  0.00  0.00    -0.133 NA
ATOM     18  H   UNL     1     -29.378   5.205   9.396  0.00  0.00    +0.214 HD
ENDBRANCH  12  13
ENDBRANCH   4   7
BRANCH   1  19
ATOM     19  C   UNL     1     -35.268   4.997   7.372  0.00  0.00    +0.148 C 
BRANCH  19  29
ATOM     20  C   UNL     1     -37.161   5.572  10.702  0.00  0.00    +0.139 C 
ATOM     21  C   UNL     1     -37.917   4.314  11.122  0.00  0.00    +0.032 C 
ATOM     22  C   UNL     1     -37.583   3.067  10.317  0.00  0.00    +0.039 C 
ATOM     23  C   UNL     1     -36.104   2.816  10.242  0.00  0.00    -0.026 A 
ATOM     24  C   UNL     1     -35.570   1.720  10.945  0.00  0.00    +0.005 A 
ATOM     25  C   UNL     1     -34.217   1.405  10.855  0.00  0.00    +0.000 A 
ATOM     26  C   UNL     1     -33.384   2.179  10.060  0.00  0.00    +0.002 A 
ATOM     27  C   UNL     1     -33.902   3.271   9.359  0.00  0.00    +0.024 A 
ATOM     28  C   UNL     1     -35.260   3.619   9.448  0.00  0.00    +0.040 A 
ATOM     29  N   UNL     1     -35.759   4.762   8.741  0.00  0.00    -0.266 N 
ATOM     30  C   UNL     1     -36.780   5.599   9.202  0.00  0.00    +0.237 C 
ATOM     31  O   UNL     1     -37.347   6.412   8.463  0.00  0.00    -0.274 OA
BRANCH  20  32
ATOM     32  N   UNL     1     -35.986   5.847  11.562  0.00  0.00    -0.320 NA
ATOM     33  H   UNL     1     -35.213   5.238  11.292  0.00  0.00    +0.119 HD
ATOM     34  H   UNL     1     -35.662   6.796  11.377  0.00  0.00    +0.119 HD
ENDBRANCH  20  32
ENDBRANCH  19  29
ENDBRANCH   1  19
TORSDOF 5
ENDMDL
MODEL 3
REMARK VINA RESULT:   -11.449      4.123      7.655
REMARK INTER + INTRA:         -14.693
REMARK INTER:                 -13.199
REMARK INTRA:                  -1.494
REMARK UNBOUND:                -0.232
REMARK  Name = CHEMBL13933
REMARK  5 active torsions:
REMARK  status: ('A' for Active; 'I' for Inactive)
REMARK    1  A    between atoms: N_1  and  C_2
REMARK    2  A    between atoms: N_11  and  C_12
REMARK    3  A    between atoms: C_12  and  C_13
REMARK    4  A    between atoms: C_16  and  C_17
REMARK    5  A    between atoms: C_22  and  C_23
REMARK                            x       y       z     vdW  Elec       q    Type
REMARK                         _______ _______ _______ _____ _____    ______ ____
ROOT
ATOM      1  C   UNL     1     -33.555   0.572  11.200  0.00  0.00    -0.030 A 
ATOM      2  C   UNL     1     -34.359   0.600  10.053  0.00  0.00    +0.006 A 
ATOM      3  C   UNL     1     -35.218   1.675   9.811  0.00  0.00    +0.009 A 
ATOM      4  C   UNL     1     -35.282   2.758  10.699  0.00  0.00    -0.017 A 
ATOM      5  C   UNL     1     -34.438   2.756  11.817  0.00  0.00    +0.009 A 
ATOM      6  C   UNL     1     -33.583   1.678  12.063  0.00  0.00    +0.006 A 
ENDROOT
BRANCH   4   7
ATOM      7  C   UNL     1     -36.215   3.869  10.462  0.00  0.00    -0.007 A 
ATOM      8  C   UNL     1     -37.557   3.707  10.866  0.00  0.00    +0.009 A 
ATOM      9  C   UNL     1     -38.488   4.735  10.715  0.00  0.00    +0.001 A 
ATOM     10  C   UNL     1     -38.096   5.947  10.162  0.00  0.00    +0.001 A 
ATOM     11  C   UNL     1     -36.775   6.129   9.753  0.00  0.00    +0.012 A 
ATOM     12  C   UNL     1     -35.823   5.099   9.886  0.00  0.00    +0.030 A 
BRANCH  12  13
ATOM     13  C   UNL     1     -34.463   5.351   9.411  0.00  0.00    +0.205 A 
ATOM     14  N   UNL     1     -33.452   5.846  10.206  0.00  0.00    -0.108 NA
ATOM     15  N   UNL     1     -32.366   5.921   9.451  0.00  0.00    -0.049 NA
ATOM     16  N   UNL     1     -32.758   5.470   8.258  0.00  0.00    -0.176 N 
ATOM     17  N   UNL     1     -34.036   5.078   8.163  0.00  0.00    -0.133 NA
ATOM     18  H   UNL     1     -32.118   5.423   7.470  0.00  0.00    +0.214 HD
ENDBRANCH  12  13
ENDBRANCH   4   7
BRANCH   1  19
ATOM     19  C   UNL     1     -32.645  -0.600  11.508  0.00  0.00    +0.148 C 
BRANCH  19  29
ATOM     20  C   UNL     1     -29.003  -0.416  10.204  0.00  0.00    +0.139 C 
ATOM     21  C   UNL     1     -28.439   0.993  10.364  0.00  0.00    +0.032 C 
ATOM     22  C   UNL     1     -29.293   1.935  11.199  0.00  0.00    +0.039 C 
ATOM     23  C   UNL     1     -29.665   1.340  12.528  0.00  0.00    -0.026 A 
ATOM     24  C   UNL     1     -29.083   1.877  13.692  0.00  0.00    +0.005 A 
ATOM     25  C   UNL     1     -29.443   1.406  14.951  0.00  0.00    +0.000 A 
ATOM     26  C   UNL     1     -30.390   0.398  15.062  0.00  0.00    +0.002 A 
ATOM     27  C   UNL     1     -30.973  -0.144  13.914  0.00  0.00    +0.024 A 
ATOM     28  C   UNL     1     -30.613   0.303  12.631  0.00  0.00    +0.040 A 
ATOM     29  N   UNL     1     -31.206  -0.291  11.469  0.00  0.00    -0.266 N 
ATOM     30  C   UNL     1     -30.549  -0.478  10.248  0.00  0.00    +0.237 C 
ATOM     31  O   UNL     1     -31.160  -0.757   9.210  0.00  0.00    -0.274 OA
BRANCH  20  32
ATOM     32  N   UNL     1     -28.398  -1.385  11.147  0.00  0.00    -0.320 NA
ATOM     33  H   UNL     1     -29.096  -2.074  11.426  0.00  0.00    +0.119 HD
ATOM     34  H   UNL     1     -27.677  -1.913  10.654  0.00  0.00    +0.119 HD
ENDBRANCH  20  32
ENDBRANCH  19  29
ENDBRANCH   1  19
TORSDOF 5
ENDMDL
