MODEL 1
REMARK VINA RESULT:   -12.439      0.000      0.000
REMARK INTER + INTRA:         -15.838
REMARK INTER:                 -15.711
REMARK INTRA:                  -0.127
REMARK UNBOUND:                -0.127
REMARK  Name = CHEMBL13933
REMARK  5 active torsions:
REMARK  status: ('A' for Active; 'I' for Inactive)
REMARK    1  A    between atoms: N_1  and  C_2
REMARK    2  A    between atoms: N_11  and  C_12
REMARK    3  A    between atoms: C_12  and  C_13
REMARK    4  A    between atoms: C_16  and  C_17
REMARK    5  A    between atoms: C_22  and  C_23
REMARK                            x       y       z     vdW  Elec       q    Type
REMARK                         _______ _______ _______ _____ _____    ______ ____
ROOT
ATOM      1  C   UNL     1     -33.154   5.576   7.299  0.00  0.00    -0.030 A 
ATOM      2  C   UNL     1     -32.975   6.204   6.060  0.00  0.00    +0.006 A 
ATOM      3  C   UNL     1     -32.166   7.338   5.946  0.00  0.00    +0.009 A 
ATOM      4  C   UNL     1     -31.504   7.863   7.064  0.00  0.00    -0.017 A 
ATOM      5  C   UNL     1     -31.639   7.203   8.293  0.00  0.00    +0.009 A 
ATOM      6  C   UNL     1     -32.452   6.072   8.408  0.00  0.00    +0.006 A 
ENDROOT
BRANCH   4   7
ATOM      7  C   UNL     1     -30.685   9.078   6.949  0.00  0.00    -0.007 A 
ATOM      8  C   UNL     1     -31.324  10.275   6.562  0.00  0.00    +0.009 A 
ATOM      9  C   UNL     1     -30.622  11.477   6.476  0.00  0.00    +0.001 A 
ATOM     10  C   UNL     1     -29.267  11.510   6.780  0.00  0.00    +0.001 A 
ATOM     11  C   UNL     1     -28.613  10.338   7.163  0.00  0.00    +0.012 A 
ATOM     12  C   UNL     1     -29.302   9.112   7.244  0.00  0.00    +0.030 A 
BRANCH  12  13
ATOM     13  C   UNL     1     -28.548   7.919   7.626  0.00  0.00    +0.205 A 
ATOM     14  N   UNL     1     -27.354   7.549   7.045  0.00  0.00    -0.108 NA
ATOM     15  N   UNL     1     -26.955   6.442   7.653  0.00  0.00    -0.049 NA
ATOM     16  N   UNL     1     -27.902   6.200   8.561  0.00  0.00    -0.176 N 
ATOM     17  N   UNL     1     -28.908   7.083   8.618  0.00  0.00    -0.133 NA
ATOM     18  H   UNL     1     -27.856   5.392   9.176  0.00  0.00    +0.214 HD
ENDBRANCH  12  13
ENDBRANCH   4   7
BRANCH   1  19
ATOM     19  C   UNL     1     -34.058   4.370   7.459  0.00  0.00    +0.148 C 
BRANCH  19  29
ATOM     20  C   UNL     1     -34.106   2.487  10.843  0.00  0.00    +0.139 C 
ATOM     21  C   UNL     1     -33.932   3.458  12.008  0.00  0.00    +0.032 C 
ATOM     22  C   UNL     1     -34.026   4.929  11.635  0.00  0.00    +0.039 C 
ATOM     23  C   UNL     1     -35.267   5.239  10.846  0.00  0.00    -0.026 A 
ATOM     24  C   UNL     1     -36.284   5.995  11.458  0.00  0.00    +0.005 A 
ATOM     25  C   UNL     1     -37.424   6.365  10.750  0.00  0.00    +0.000 A 
ATOM     26  C   UNL     1     -37.557   5.987   9.421  0.00  0.00    +0.002 A 
ATOM     27  C   UNL     1     -36.555   5.236   8.802  0.00  0.00    +0.024 A 
ATOM     28  C   UNL     1     -35.405   4.836   9.502  0.00  0.00    +0.040 A 
ATOM     29  N   UNL     1     -34.405   4.040   8.851  0.00  0.00    -0.266 N 
ATOM     30  C   UNL     1     -33.637   3.056   9.481  0.00  0.00    +0.237 C 
ATOM     31  O   UNL     1     -32.627   2.574   8.956  0.00  0.00    -0.274 OA
BRANCH  20  32
ATOM     32  N   UNL     1     -35.480   1.939  10.754  0.00  0.00    -0.320 NA
ATOM     33  H   UNL     1     -35.851   1.791  11.693  0.00  0.00    +0.119 HD
ATOM     34  H   UNL     1     -36.084   2.644  10.331  0.00  0.00    +0.119 HD
ENDBRANCH  20  32
ENDBRANCH  19  29
ENDBRANCH   1  19
TORSDOF 5
ENDMDL
MODEL 2
REMARK VINA RESULT:   -12.359      2.529      3.943
REMARK INTER + INTRA:         -15.737
REMARK INTER:                 -15.043
REMARK INTRA:                  -0.694
REMARK UNBOUND:                -0.127
REMARK  Name = CHEMBL13933
REMARK  5 active torsions:
REMARK  status: ('A' for Active; 'I' for Inactive)
REMARK    1  A    between atoms: N_1  and  C_2
REMARK    2  A    between atoms: N_11  and  C_12
REMARK    3  A    between atoms: C_12  and  C_13
REMARK    4  A    between atoms: C_16  and  C_17
REMARK    5  A    between atoms: C_22  and  C_23
REMARK                            x       y       z     vdW  Elec       q    Type
REMARK                         _______ _______ _______ _____ _____    ______ ____
ROOT
ATOM      1  C   UNL     1     -33.105   5.794   7.308  0.00  0.00    -0.030 A 
ATOM      2  C   UNL     1     -32.221   5.941   8.384  0.00  0.00    +0.006 A 
ATOM      3  C   UNL     1     -31.142   6.826   8.306  0.00  0.00    +0.009 A 
ATOM      4  C   UNL     1     -30.930   7.599   7.155  0.00  0.00    -0.017 A 
ATOM      5  C   UNL     1     -31.845   7.492   6.100  0.00  0.00    +0.009 A 
ATOM      6  C   UNL     1     -32.921   6.603   6.176  0.00  0.00    +0.006 A 
ENDROOT
BRANCH   4   7
ATOM      7  C   UNL     1     -29.773   8.500   7.060  0.00  0.00    -0.007 A 
ATOM      8  C   UNL     1     -28.498   7.926   6.874  0.00  0.00    +0.009 A 
ATOM      9  C   UNL     1     -27.359   8.719   6.729  0.00  0.00    +0.001 A 
ATOM     10  C   UNL     1     -27.472  10.103   6.762  0.00  0.00    +0.001 A 
ATOM     11  C   UNL     1     -28.723  10.693   6.948  0.00  0.00    +0.012 A 
ATOM     12  C   UNL     1     -29.882   9.909   7.108  0.00  0.00    +0.030 A 
BRANCH  12  13
ATOM     13  C   UNL     1     -31.156  10.595   7.325  0.00  0.00    +0.205 A 
ATOM     14  N   UNL     1     -32.068  10.229   8.291  0.00  0.00    -0.108 NA
ATOM     15  N   UNL     1     -33.080  11.080   8.210  0.00  0.00    -0.049 NA
ATOM     16  N   UNL     1     -32.739  11.911   7.223  0.00  0.00    -0.176 N 
ATOM     17  N   UNL     1     -31.551  11.686   6.643  0.00  0.00    -0.133 NA
ATOM     18  H   UNL     1     -33.346  12.673   6.935  0.00  0.00    +0.214 HD
ENDBRANCH  12  13
ENDBRANCH   4   7
BRANCH   1  19
ATOM     19  C   UNL     1     -34.258   4.811   7.351  0.00  0.00    +0.148 C 
BRANCH  19  29
ATOM     20  C   UNL     1     -36.166   5.553  10.638  0.00  0.00    +0.139 C 
ATOM     21  C   UNL     1     -37.142   4.425  10.967  0.00  0.00    +0.032 C 
ATOM     22  C   UNL     1     -36.990   3.177  10.111  0.00  0.00    +0.039 C 
ATOM     23  C   UNL     1     -35.573   2.680  10.074  0.00  0.00    -0.026 A 
ATOM     24  C   UNL     1     -35.263   1.478  10.738  0.00  0.00    +0.005 A 
ATOM     25  C   UNL     1     -33.981   0.940  10.679  0.00  0.00    +0.000 A 
ATOM     26  C   UNL     1     -32.995   1.595   9.954  0.00  0.00    +0.002 A 
ATOM     27  C   UNL     1     -33.290   2.790   9.293  0.00  0.00    +0.024 A 
ATOM     28  C   UNL     1     -34.572   3.361   9.352  0.00  0.00    +0.040 A 
ATOM     29  N   UNL     1     -34.840   4.603   8.687  0.00  0.00    -0.266 N 
ATOM     30  C   UNL     1     -35.722   5.581   9.156  0.00  0.00    +0.237 C 
ATOM     31  O   UNL     1     -36.111   6.512   8.440  0.00  0.00    -0.274 OA
BRANCH  20  32
ATOM     32  N   UNL     1     -34.999   5.584  11.551  0.00  0.00    -0.320 NA
ATOM     33  H   UNL     1     -34.393   4.786  11.360  0.00  0.00    +0.119 HD
ATOM     34  H   UNL     1     -34.439   6.409  11.336  0.00  0.00    +0.119 HD
ENDBRANCH  20  32
ENDBRANCH  19  29
ENDBRANCH   1  19
TORSDOF 5
ENDMDL
MODEL 3
REMARK VINA RESULT:   -12.232      1.412      2.719
REMARK INTER + INTRA:         -15.577
REMARK INTER:                 -15.370
REMARK INTRA:                  -0.207
REMARK UNBOUND:                -0.127
REMARK  Name = CHEMBL13933
REMARK  5 active torsions:
REMARK  status: ('A' for Active; 'I' for Inactive)
REMARK    1  A    between atoms: N_1  and  C_2
REMARK    2  A    between atoms: N_11  and  C_12
REMARK    3  A    between atoms: C_12  and  C_13
REMARK    4  A    between atoms: C_16  and  C_17
REMARK    5  A    between atoms: C_22  and  C_23
REMARK                            x       y       z     vdW  Elec       q    Type
REMARK                         _______ _______ _______ _____ _____    ______ ____
ROOT
ATOM      1  C   UNL     1     -32.990   5.836   7.165  0.00  0.00    -0.030 A 
ATOM      2  C   UNL     1     -32.822   6.474   5.930  0.00  0.00    +0.006 A 
ATOM      3  C   UNL     1     -32.005   7.602   5.815  0.00  0.00    +0.009 A 
ATOM      4  C   UNL     1     -31.322   8.111   6.929  0.00  0.00    -0.017 A 
ATOM      5  C   UNL     1     -31.447   7.440   8.153  0.00  0.00    +0.009 A 
ATOM      6  C   UNL     1     -32.268   6.315   8.269  0.00  0.00    +0.006 A 
ENDROOT
BRANCH   4   7
ATOM      7  C   UNL     1     -30.494   9.319   6.814  0.00  0.00    -0.007 A 
ATOM      8  C   UNL     1     -31.125  10.523   6.435  0.00  0.00    +0.009 A 
ATOM      9  C   UNL     1     -30.414  11.720   6.350  0.00  0.00    +0.001 A 
ATOM     10  C   UNL     1     -29.057  11.740   6.647  0.00  0.00    +0.001 A 
ATOM     11  C   UNL     1     -28.411  10.561   7.022  0.00  0.00    +0.012 A 
ATOM     12  C   UNL     1     -29.110   9.340   7.102  0.00  0.00    +0.030 A 
BRANCH  12  13
ATOM     13  C   UNL     1     -28.363   8.140   7.475  0.00  0.00    +0.205 A 
ATOM     14  N   UNL     1     -27.318   7.627   6.737  0.00  0.00    -0.108 NA
ATOM     15  N   UNL     1     -26.874   6.560   7.385  0.00  0.00    -0.049 NA
ATOM     16  N   UNL     1     -27.649   6.481   8.468  0.00  0.00    -0.176 N 
ATOM     17  N   UNL     1     -28.579   7.437   8.603  0.00  0.00    -0.133 NA
ATOM     18  H   UNL     1     -27.534   5.738   9.152  0.00  0.00    +0.214 HD
ENDBRANCH  12  13
ENDBRANCH   4   7
BRANCH   1  19
ATOM     19  C   UNL     1     -33.903   4.637   7.326  0.00  0.00    +0.148 C 
BRANCH  19  29
ATOM     20  C   UNL     1     -36.003   5.469  10.472  0.00  0.00    +0.139 C 
ATOM     21  C   UNL     1     -36.850   4.270  10.893  0.00  0.00    +0.032 C 
ATOM     22  C   UNL     1     -36.521   2.970  10.176  0.00  0.00    +0.039 C 
ATOM     23  C   UNL     1     -35.054   2.647  10.225  0.00  0.00    -0.026 A 
ATOM     24  C   UNL     1     -34.629   1.564  11.017  0.00  0.00    +0.005 A 
ATOM     25  C   UNL     1     -33.291   1.183  11.045  0.00  0.00    +0.000 A 
ATOM     26  C   UNL     1     -32.364   1.876  10.279  0.00  0.00    +0.002 A 
ATOM     27  C   UNL     1     -32.774   2.953   9.490  0.00  0.00    +0.024 A 
ATOM     28  C   UNL     1     -34.116   3.368   9.459  0.00  0.00    +0.040 A 
ATOM     29  N   UNL     1     -34.504   4.495   8.663  0.00  0.00    -0.266 N 
ATOM     30  C   UNL     1     -35.512   5.402   9.005  0.00  0.00    +0.237 C 
ATOM     31  O   UNL     1     -35.982   6.202   8.188  0.00  0.00    -0.274 OA
BRANCH  20  32
ATOM     32  N   UNL     1     -34.881   5.733  11.404  0.00  0.00    -0.320 NA
ATOM     33  H   UNL     1     -35.219   6.269  12.204  0.00  0.00    +0.119 HD
ATOM     34  H   UNL     1     -34.562   4.843  11.789  0.00  0.00    +0.119 HD
ENDBRANCH  20  32
ENDBRANCH  19  29
ENDBRANCH   1  19
TORSDOF 5
ENDMDL
