MODEL 1
REMARK VINA RESULT:   -10.994      0.000      0.000
REMARK INTER + INTRA:         -14.341
REMARK INTER:                 -13.565
REMARK INTRA:                  -0.776
REMARK UNBOUND:                -0.776
REMARK  Name = CHEMBL33607
REMARK  4 active torsions:
REMARK  status: ('A' for Active; 'I' for Inactive)
REMARK    1  A    between atoms: C_4  and  C_5
REMARK    2  A    between atoms: C_9  and  C_10
REMARK    3  A    between atoms: C_11  and  C_12
REMARK    4  A    between atoms: C_27  and  C_28
REMARK                            x       y       z     vdW  Elec       q    Type
REMARK                         _______ _______ _______ _____ _____    ______ ____
ROOT
ATOM      1  C   UNL     1      22.246   8.357 -12.329  0.00  0.00    +0.018 A 
ATOM      2  C   UNL     1      22.860   9.360 -11.564  0.00  0.00    +0.011 A 
ATOM      3  C   UNL     1      23.357  10.514 -12.170  0.00  0.00    +0.001 A 
ATOM      4  C   UNL     1      23.235  10.686 -13.549  0.00  0.00    +0.008 A 
ATOM      5  C   UNL     1      22.604   9.714 -14.332  0.00  0.00    -0.024 A 
ATOM      6  C   UNL     1      22.123   8.550 -13.715  0.00  0.00    +0.019 A 
ENDROOT
BRANCH   1  10
ATOM      7  O   UNL     1      21.119   3.688 -12.139  0.00  0.00    -0.287 OA
ATOM      8  C   UNL     1      21.172   4.781 -11.592  0.00  0.00    +0.193 A 
ATOM      9  C   UNL     1      21.685   5.962 -12.304  0.00  0.00    +0.098 A 
ATOM     10  C   UNL     1      21.730   7.142 -11.670  0.00  0.00    +0.139 A 
ATOM     11  O   UNL     1      21.334   7.336 -10.355  0.00  0.00    -0.455 OA
ATOM     12  C   UNL     1      20.838   6.263  -9.658  0.00  0.00    +0.139 A 
ATOM     13  C   UNL     1      20.431   6.491  -8.346  0.00  0.00    +0.048 A 
ATOM     14  C   UNL     1      19.919   5.435  -7.584  0.00  0.00    +0.015 A 
ATOM     15  C   UNL     1      19.809   4.143  -8.126  0.00  0.00    +0.024 A 
ATOM     16  C   UNL     1      20.222   3.927  -9.449  0.00  0.00    +0.027 A 
ATOM     17  C   UNL     1      20.733   4.988 -10.204  0.00  0.00    +0.065 A 
BRANCH  15  18
ATOM     18  C   UNL     1      19.275   3.045  -7.329  0.00  0.00    +0.204 A 
ATOM     19  N   UNL     1      19.624   2.833  -6.014  0.00  0.00    -0.108 NA
ATOM     20  N   UNL     1      18.959   1.761  -5.608  0.00  0.00    -0.049 NA
ATOM     21  N   UNL     1      18.253   1.380  -6.675  0.00  0.00    -0.176 N 
ATOM     22  N   UNL     1      18.398   2.129  -7.779  0.00  0.00    -0.133 NA
ATOM     23  H   UNL     1      17.642   0.568  -6.647  0.00  0.00    +0.214 HD
ENDBRANCH  15  18
ENDBRANCH   1  10
BRANCH   5  24
ATOM     24  C   UNL     1      22.513   9.923 -15.785  0.00  0.00    +0.010 C 
ATOM     25  C   UNL     1      21.835  10.938 -16.347  0.00  0.00    +0.028 C 
BRANCH  25  26
ATOM     26  C   UNL     1      21.699  11.187 -17.787  0.00  0.00    +0.065 A 
ATOM     27  C   UNL     1      20.475  11.303 -18.430  0.00  0.00    +0.028 A 
ATOM     28  C   UNL     1      20.461  11.515 -19.806  0.00  0.00    +0.012 A 
ATOM     29  C   UNL     1      21.667  11.597 -20.508  0.00  0.00    +0.000 A 
ATOM     30  C   UNL     1      21.703  11.812 -21.897  0.00  0.00    +0.010 A 
ATOM     31  C   UNL     1      22.923  11.886 -22.566  0.00  0.00    +0.001 A 
ATOM     32  C   UNL     1      24.108  11.746 -21.851  0.00  0.00    +0.002 A 
ATOM     33  C   UNL     1      24.065  11.532 -20.470  0.00  0.00    +0.028 A 
ATOM     34  C   UNL     1      22.864  11.455 -19.778  0.00  0.00    +0.072 A 
ATOM     35  N   UNL     1      22.877  11.247 -18.449  0.00  0.00    -0.247 NA
ENDBRANCH  25  26
ENDBRANCH   5  24
TORSDOF 4
ENDMDL
MODEL 2
REMARK VINA RESULT:   -10.881      1.609      2.109
REMARK INTER + INTRA:         -14.201
REMARK INTER:                 -13.363
REMARK INTRA:                  -0.839
REMARK UNBOUND:                -0.776
REMARK  Name = CHEMBL33607
REMARK  4 active torsions:
REMARK  status: ('A' for Active; 'I' for Inactive)
REMARK    1  A    between atoms: C_4  and  C_5
REMARK    2  A    between atoms: C_9  and  C_10
REMARK    3  A    between atoms: C_11  and  C_12
REMARK    4  A    between atoms: C_27  and  C_28
REMARK                            x       y       z     vdW  Elec       q    Type
REMARK                         _______ _______ _______ _____ _____    ______ ____
ROOT
ATOM      1  C   UNL     1      21.667   8.520 -12.568  0.00  0.00    +0.018 A 
ATOM      2  C   UNL     1      22.719   9.186 -11.921  0.00  0.00    +0.011 A 
ATOM      3  C   UNL     1      23.361  10.263 -12.531  0.00  0.00    +0.001 A 
ATOM      4  C   UNL     1      22.952  10.697 -13.791  0.00  0.00    +0.008 A 
ATOM      5  C   UNL     1      21.889  10.069 -14.448  0.00  0.00    -0.024 A 
ATOM      6  C   UNL     1      21.261   8.976 -13.833  0.00  0.00    +0.019 A 
ENDROOT
BRANCH   1  10
ATOM      7  O   UNL     1      18.971   4.542 -12.490  0.00  0.00    -0.287 OA
ATOM      8  C   UNL     1      19.642   5.370 -11.890  0.00  0.00    +0.193 A 
ATOM      9  C   UNL     1      20.271   6.494 -12.600  0.00  0.00    +0.098 A 
ATOM     10  C   UNL     1      21.003   7.380 -11.908  0.00  0.00    +0.139 A 
ATOM     11  O   UNL     1      21.230   7.306 -10.542  0.00  0.00    -0.455 OA
ATOM     12  C   UNL     1      20.651   6.279  -9.840  0.00  0.00    +0.139 A 
ATOM     13  C   UNL     1      20.880   6.240  -8.466  0.00  0.00    +0.048 A 
ATOM     14  C   UNL     1      20.318   5.215  -7.697  0.00  0.00    +0.015 A 
ATOM     15  C   UNL     1      19.523   4.221  -8.292  0.00  0.00    +0.024 A 
ATOM     16  C   UNL     1      19.300   4.272  -9.676  0.00  0.00    +0.027 A 
ATOM     17  C   UNL     1      19.864   5.301 -10.438  0.00  0.00    +0.065 A 
BRANCH  15  18
ATOM     18  C   UNL     1      18.940   3.155  -7.488  0.00  0.00    +0.204 A 
ATOM     19  N   UNL     1      19.478   2.737  -6.291  0.00  0.00    -0.108 NA
ATOM     20  N   UNL     1      18.701   1.763  -5.839  0.00  0.00    -0.049 NA
ATOM     21  N   UNL     1      17.747   1.638  -6.765  0.00  0.00    -0.176 N 
ATOM     22  N   UNL     1      17.830   2.467  -7.816  0.00  0.00    -0.133 NA
ATOM     23  H   UNL     1      17.004   0.951  -6.673  0.00  0.00    +0.214 HD
ENDBRANCH  15  18
ENDBRANCH   1  10
BRANCH   5  24
ATOM     24  C   UNL     1      21.501  10.543 -15.784  0.00  0.00    +0.010 C 
ATOM     25  C   UNL     1      21.136   9.723 -16.784  0.00  0.00    +0.028 C 
BRANCH  25  26
ATOM     26  C   UNL     1      20.753  10.137 -18.140  0.00  0.00    +0.065 A 
ATOM     27  C   UNL     1      20.925  11.426 -18.622  0.00  0.00    +0.028 A 
ATOM     28  C   UNL     1      20.501  11.716 -19.917  0.00  0.00    +0.012 A 
ATOM     29  C   UNL     1      19.910  10.716 -20.694  0.00  0.00    +0.000 A 
ATOM     30  C   UNL     1      19.468  10.961 -22.007  0.00  0.00    +0.010 A 
ATOM     31  C   UNL     1      18.880   9.943 -22.753  0.00  0.00    +0.001 A 
ATOM     32  C   UNL     1      18.730   8.679 -22.191  0.00  0.00    +0.002 A 
ATOM     33  C   UNL     1      19.171   8.442 -20.885  0.00  0.00    +0.028 A 
ATOM     34  C   UNL     1      19.761   9.438 -20.120  0.00  0.00    +0.072 A 
ATOM     35  N   UNL     1      20.167   9.159 -18.869  0.00  0.00    -0.247 NA
ENDBRANCH  25  26
ENDBRANCH   5  24
TORSDOF 4
ENDMDL
MODEL 3
REMARK VINA RESULT:   -10.644      5.823      9.363
REMARK INTER + INTRA:         -13.909
REMARK INTER:                 -13.088
REMARK INTRA:                  -0.821
REMARK UNBOUND:                -0.776
REMARK  Name = CHEMBL33607
REMARK  4 active torsions:
REMARK  status: ('A' for Active; 'I' for Inactive)
REMARK    1  A    between atoms: C_4  and  C_5
REMARK    2  A    between atoms: C_9  and  C_10
REMARK    3  A    between atoms: C_11  and  C_12
REMARK    4  A    between atoms: C_27  and  C_28
REMARK                            x       y       z     vdW  Elec       q    Type
REMARK                         _______ _______ _______ _____ _____    ______ ____
ROOT
ATOM      1  C   UNL     1      20.126   4.579 -11.991  0.00  0.00    +0.018 A 
ATOM      2  C   UNL     1      20.380   3.539 -11.085  0.00  0.00    +0.011 A 
ATOM      3  C   UNL     1      19.491   2.471 -10.961  0.00  0.00    +0.001 A 
ATOM      4  C   UNL     1      18.343   2.423 -11.750  0.00  0.00    +0.008 A 
ATOM      5  C   UNL     1      18.078   3.433 -12.681  0.00  0.00    -0.024 A 
ATOM      6  C   UNL     1      18.969   4.512 -12.786  0.00  0.00    +0.019 A 
ENDROOT
BRANCH   1  10
ATOM      7  O   UNL     1      24.510   6.550 -12.014  0.00  0.00    -0.287 OA
ATOM      8  C   UNL     1      23.299   6.678 -12.117  0.00  0.00    +0.193 A 
ATOM      9  C   UNL     1      22.398   5.522 -11.982  0.00  0.00    +0.098 A 
ATOM     10  C   UNL     1      21.075   5.703 -12.105  0.00  0.00    +0.139 A 
ATOM     11  O   UNL     1      20.477   6.925 -12.373  0.00  0.00    -0.455 OA
ATOM     12  C   UNL     1      21.279   8.031 -12.495  0.00  0.00    +0.139 A 
ATOM     13  C   UNL     1      20.649   9.248 -12.745  0.00  0.00    +0.048 A 
ATOM     14  C   UNL     1      21.415  10.411 -12.882  0.00  0.00    +0.015 A 
ATOM     15  C   UNL     1      22.816  10.369 -12.770  0.00  0.00    +0.024 A 
ATOM     16  C   UNL     1      23.437   9.138 -12.518  0.00  0.00    +0.027 A 
ATOM     17  C   UNL     1      22.664   7.979 -12.381  0.00  0.00    +0.065 A 
BRANCH  15  18
ATOM     18  C   UNL     1      23.610  11.583 -12.914  0.00  0.00    +0.204 A 
ATOM     19  N   UNL     1      24.352  11.865 -14.038  0.00  0.00    -0.108 NA
ATOM     20  N   UNL     1      24.940  13.034 -13.828  0.00  0.00    -0.049 NA
ATOM     21  N   UNL     1      24.535  13.398 -12.609  0.00  0.00    -0.176 N 
ATOM     22  N   UNL     1      23.709  12.548 -11.981  0.00  0.00    -0.133 NA
ATOM     23  H   UNL     1      24.840  14.270 -12.185  0.00  0.00    +0.214 HD
ENDBRANCH  15  18
ENDBRANCH   1  10
BRANCH   5  24
ATOM     24  C   UNL     1      16.846   3.357 -13.480  0.00  0.00    +0.010 C 
ATOM     25  C   UNL     1      16.686   3.987 -14.655  0.00  0.00    +0.028 C 
BRANCH  25  26
ATOM     26  C   UNL     1      15.477   3.959 -15.489  0.00  0.00    +0.065 A 
ATOM     27  C   UNL     1      14.232   3.570 -15.016  0.00  0.00    +0.028 A 
ATOM     28  C   UNL     1      13.157   3.556 -15.900  0.00  0.00    +0.012 A 
ATOM     29  C   UNL     1      13.352   3.923 -17.235  0.00  0.00    +0.000 A 
ATOM     30  C   UNL     1      12.296   3.926 -18.165  0.00  0.00    +0.010 A 
ATOM     31  C   UNL     1      12.525   4.294 -19.489  0.00  0.00    +0.001 A 
ATOM     32  C   UNL     1      13.807   4.658 -19.888  0.00  0.00    +0.002 A 
ATOM     33  C   UNL     1      14.852   4.653 -18.959  0.00  0.00    +0.028 A 
ATOM     34  C   UNL     1      14.652   4.291 -17.634  0.00  0.00    +0.072 A 
ATOM     35  N   UNL     1      15.691   4.301 -16.780  0.00  0.00    -0.247 NA
ENDBRANCH  25  26
ENDBRANCH   5  24
TORSDOF 4
ENDMDL
