MODEL 1
REMARK VINA RESULT:   -13.102      0.000      0.000
REMARK INTER + INTRA:         -16.956
REMARK INTER:                 -16.165
REMARK INTRA:                  -0.791
REMARK UNBOUND:                -0.791
REMARK  Name = CHEMBL33607
REMARK  4 active torsions:
REMARK  status: ('A' for Active; 'I' for Inactive)
REMARK    1  A    between atoms: C_4  and  C_5
REMARK    2  A    between atoms: C_9  and  C_10
REMARK    3  A    between atoms: C_11  and  C_12
REMARK    4  A    between atoms: C_27  and  C_28
REMARK                            x       y       z     vdW  Elec       q    Type
REMARK                         _______ _______ _______ _____ _____    ______ ____
ROOT
ATOM      1  C   UNL     1      -5.181 -13.495 -53.204  0.00  0.00    +0.018 A 
ATOM      2  C   UNL     1      -6.557 -13.389 -52.952  0.00  0.00    +0.011 A 
ATOM      3  C   UNL     1      -7.486 -13.957 -53.825  0.00  0.00    +0.001 A 
ATOM      4  C   UNL     1      -7.051 -14.648 -54.955  0.00  0.00    +0.008 A 
ATOM      5  C   UNL     1      -5.684 -14.792 -55.216  0.00  0.00    -0.024 A 
ATOM      6  C   UNL     1      -4.758 -14.203 -54.342  0.00  0.00    +0.019 A 
ENDROOT
BRANCH   1  10
ATOM      7  O   UNL     1      -3.496  -9.950 -50.429  0.00  0.00    -0.287 OA
ATOM      8  C   UNL     1      -3.382 -11.084 -50.873  0.00  0.00    +0.193 A 
ATOM      9  C   UNL     1      -4.372 -11.636 -51.810  0.00  0.00    +0.098 A 
ATOM     10  C   UNL     1      -4.214 -12.885 -52.272  0.00  0.00    +0.139 A 
ATOM     11  O   UNL     1      -3.169 -13.723 -51.912  0.00  0.00    -0.455 OA
ATOM     12  C   UNL     1      -2.217 -13.243 -51.049  0.00  0.00    +0.139 A 
ATOM     13  C   UNL     1      -1.168 -14.099 -50.720  0.00  0.00    +0.048 A 
ATOM     14  C   UNL     1      -0.168 -13.667 -49.842  0.00  0.00    +0.015 A 
ATOM     15  C   UNL     1      -0.205 -12.377 -49.286  0.00  0.00    +0.024 A 
ATOM     16  C   UNL     1      -1.265 -11.524 -49.627  0.00  0.00    +0.027 A 
ATOM     17  C   UNL     1      -2.262 -11.963 -50.506  0.00  0.00    +0.065 A 
BRANCH  15  18
ATOM     18  C   UNL     1       0.839 -11.931 -48.372  0.00  0.00    +0.204 A 
ATOM     19  N   UNL     1       0.812 -12.187 -47.020  0.00  0.00    -0.108 NA
ATOM     20  N   UNL     1       1.904 -11.641 -46.503  0.00  0.00    -0.049 NA
ATOM     21  N   UNL     1       2.528 -11.089 -47.546  0.00  0.00    -0.176 N 
ATOM     22  N   UNL     1       1.927 -11.228 -48.737  0.00  0.00    -0.133 NA
ATOM     23  H   UNL     1       3.408 -10.592 -47.437  0.00  0.00    +0.214 HD
ENDBRANCH  15  18
ENDBRANCH   1  10
BRANCH   5  24
ATOM     24  C   UNL     1      -5.265 -15.511 -56.428  0.00  0.00    +0.010 C 
ATOM     25  C   UNL     1      -4.027 -15.436 -56.944  0.00  0.00    +0.028 C 
BRANCH  25  26
ATOM     26  C   UNL     1      -3.557 -16.118 -58.156  0.00  0.00    +0.065 A 
ATOM     27  C   UNL     1      -3.621 -15.556 -59.423  0.00  0.00    +0.028 A 
ATOM     28  C   UNL     1      -3.169 -16.303 -60.508  0.00  0.00    +0.012 A 
ATOM     29  C   UNL     1      -2.674 -17.594 -60.304  0.00  0.00    +0.000 A 
ATOM     30  C   UNL     1      -2.206 -18.385 -61.368  0.00  0.00    +0.010 A 
ATOM     31  C   UNL     1      -1.721 -19.669 -61.130  0.00  0.00    +0.001 A 
ATOM     32  C   UNL     1      -1.703 -20.166 -59.831  0.00  0.00    +0.002 A 
ATOM     33  C   UNL     1      -2.171 -19.375 -58.777  0.00  0.00    +0.028 A 
ATOM     34  C   UNL     1      -2.658 -18.092 -58.986  0.00  0.00    +0.072 A 
ATOM     35  N   UNL     1      -3.097 -17.372 -57.938  0.00  0.00    -0.247 NA
ENDBRANCH  25  26
ENDBRANCH   5  24
TORSDOF 4
ENDMDL
MODEL 2
REMARK VINA RESULT:   -12.821      2.515     10.659
REMARK INTER + INTRA:         -16.610
REMARK INTER:                 -15.745
REMARK INTRA:                  -0.865
REMARK UNBOUND:                -0.791
REMARK  Name = CHEMBL33607
REMARK  4 active torsions:
REMARK  status: ('A' for Active; 'I' for Inactive)
REMARK    1  A    between atoms: C_4  and  C_5
REMARK    2  A    between atoms: C_9  and  C_10
REMARK    3  A    between atoms: C_11  and  C_12
REMARK    4  A    between atoms: C_27  and  C_28
REMARK                            x       y       z     vdW  Elec       q    Type
REMARK                         _______ _______ _______ _____ _____    ______ ____
ROOT
ATOM      1  C   UNL     1      -5.570 -14.082 -54.263  0.00  0.00    +0.018 A 
ATOM      2  C   UNL     1      -6.901 -13.894 -53.865  0.00  0.00    +0.011 A 
ATOM      3  C   UNL     1      -7.202 -13.428 -52.584  0.00  0.00    +0.001 A 
ATOM      4  C   UNL     1      -6.174 -13.133 -51.689  0.00  0.00    +0.008 A 
ATOM      5  C   UNL     1      -4.836 -13.286 -52.069  0.00  0.00    -0.024 A 
ATOM      6  C   UNL     1      -4.545 -13.772 -53.353  0.00  0.00    +0.019 A 
ENDROOT
BRANCH   1  10
ATOM      7  O   UNL     1      -6.589 -14.902 -58.889  0.00  0.00    -0.287 OA
ATOM      8  C   UNL     1      -5.804 -14.981 -57.954  0.00  0.00    +0.193 A 
ATOM      9  C   UNL     1      -6.161 -14.478 -56.618  0.00  0.00    +0.098 A 
ATOM     10  C   UNL     1      -5.272 -14.580 -55.620  0.00  0.00    +0.139 A 
ATOM     11  O   UNL     1      -4.003 -15.122 -55.758  0.00  0.00    -0.455 OA
ATOM     12  C   UNL     1      -3.634 -15.614 -56.984  0.00  0.00    +0.139 A 
ATOM     13  C   UNL     1      -2.361 -16.170 -57.089  0.00  0.00    +0.048 A 
ATOM     14  C   UNL     1      -1.927 -16.685 -58.315  0.00  0.00    +0.015 A 
ATOM     15  C   UNL     1      -2.760 -16.650 -59.447  0.00  0.00    +0.024 A 
ATOM     16  C   UNL     1      -4.039 -16.088 -59.328  0.00  0.00    +0.027 A 
ATOM     17  C   UNL     1      -4.466 -15.575 -58.098  0.00  0.00    +0.065 A 
BRANCH  15  18
ATOM     18  C   UNL     1      -2.304 -17.188 -60.723  0.00  0.00    +0.204 A 
ATOM     19  N   UNL     1      -3.126 -17.315 -61.820  0.00  0.00    -0.108 NA
ATOM     20  N   UNL     1      -2.391 -17.833 -62.793  0.00  0.00    -0.049 NA
ATOM     21  N   UNL     1      -1.181 -17.993 -62.251  0.00  0.00    -0.176 N 
ATOM     22  N   UNL     1      -1.052 -17.614 -60.971  0.00  0.00    -0.133 NA
ATOM     23  H   UNL     1      -0.406 -18.380 -62.783  0.00  0.00    +0.214 HD
ENDBRANCH  15  18
ENDBRANCH   1  10
BRANCH   5  24
ATOM     24  C   UNL     1      -3.782 -12.984 -51.091  0.00  0.00    +0.010 C 
ATOM     25  C   UNL     1      -2.529 -13.461 -51.181  0.00  0.00    +0.028 C 
BRANCH  25  26
ATOM     26  C   UNL     1      -1.440 -13.205 -50.230  0.00  0.00    +0.065 A 
ATOM     27  C   UNL     1      -0.105 -13.456 -50.510  0.00  0.00    +0.028 A 
ATOM     28  C   UNL     1       0.844 -13.200 -49.524  0.00  0.00    +0.012 A 
ATOM     29  C   UNL     1       0.437 -12.709 -48.280  0.00  0.00    +0.000 A 
ATOM     30  C   UNL     1       1.359 -12.434 -47.254  0.00  0.00    +0.010 A 
ATOM     31  C   UNL     1       0.919 -11.948 -46.024  0.00  0.00    +0.001 A 
ATOM     32  C   UNL     1      -0.440 -11.735 -45.817  0.00  0.00    +0.002 A 
ATOM     33  C   UNL     1      -1.352 -12.011 -46.841  0.00  0.00    +0.028 A 
ATOM     34  C   UNL     1      -0.941 -12.496 -48.075  0.00  0.00    +0.072 A 
ATOM     35  N   UNL     1      -1.858 -12.745 -49.027  0.00  0.00    -0.247 NA
ENDBRANCH  25  26
ENDBRANCH   5  24
TORSDOF 4
ENDMDL
MODEL 3
REMARK VINA RESULT:   -12.807      3.054     10.484
REMARK INTER + INTRA:         -16.593
REMARK INTER:                 -15.782
REMARK INTRA:                  -0.810
REMARK UNBOUND:                -0.791
REMARK  Name = CHEMBL33607
REMARK  4 active torsions:
REMARK  status: ('A' for Active; 'I' for Inactive)
REMARK    1  A    between atoms: C_4  and  C_5
REMARK    2  A    between atoms: C_9  and  C_10
REMARK    3  A    between atoms: C_11  and  C_12
REMARK    4  A    between atoms: C_27  and  C_28
REMARK                            x       y       z     vdW  Elec       q    Type
REMARK                         _______ _______ _______ _____ _____    ______ ____
ROOT
ATOM      1  C   UNL     1      -5.227 -15.205 -56.274  0.00  0.00    +0.018 A 
ATOM      2  C   UNL     1      -6.626 -15.211 -56.375  0.00  0.00    +0.011 A 
ATOM      3  C   UNL     1      -7.416 -14.707 -55.341  0.00  0.00    +0.001 A 
ATOM      4  C   UNL     1      -6.816 -14.181 -54.197  0.00  0.00    +0.008 A 
ATOM      5  C   UNL     1      -5.423 -14.138 -54.082  0.00  0.00    -0.024 A 
ATOM      6  C   UNL     1      -4.638 -14.662 -55.120  0.00  0.00    +0.019 A 
ENDROOT
BRANCH   1  10
ATOM      7  O   UNL     1      -3.733 -15.441 -60.837  0.00  0.00    -0.287 OA
ATOM      8  C   UNL     1      -3.664 -15.846 -59.685  0.00  0.00    +0.193 A 
ATOM      9  C   UNL     1      -4.515 -15.277 -58.628  0.00  0.00    +0.098 A 
ATOM     10  C   UNL     1      -4.409 -15.745 -57.376  0.00  0.00    +0.139 A 
ATOM     11  O   UNL     1      -3.524 -16.740 -56.989  0.00  0.00    -0.455 OA
ATOM     12  C   UNL     1      -2.720 -17.307 -57.945  0.00  0.00    +0.139 A 
ATOM     13  C   UNL     1      -1.855 -18.317 -57.532  0.00  0.00    +0.048 A 
ATOM     14  C   UNL     1      -1.008 -18.930 -58.462  0.00  0.00    +0.015 A 
ATOM     15  C   UNL     1      -1.019 -18.542 -59.813  0.00  0.00    +0.024 A 
ATOM     16  C   UNL     1      -1.896 -17.524 -60.216  0.00  0.00    +0.027 A 
ATOM     17  C   UNL     1      -2.739 -16.915 -59.280  0.00  0.00    +0.065 A 
BRANCH  15  18
ATOM     18  C   UNL     1      -0.136 -19.183 -60.779  0.00  0.00    +0.204 A 
ATOM     19  N   UNL     1       1.123 -19.638 -60.457  0.00  0.00    -0.108 NA
ATOM     20  N   UNL     1       1.638 -20.158 -61.563  0.00  0.00    -0.049 NA
ATOM     21  N   UNL     1       0.686 -19.995 -62.484  0.00  0.00    -0.176 N 
ATOM     22  N   UNL     1      -0.442 -19.398 -62.071  0.00  0.00    -0.133 NA
ATOM     23  H   UNL     1       0.814 -20.307 -63.443  0.00  0.00    +0.214 HD
ENDBRANCH  15  18
ENDBRANCH   1  10
BRANCH   5  24
ATOM     24  C   UNL     1      -4.829 -13.593 -52.852  0.00  0.00    +0.010 C 
ATOM     25  C   UNL     1      -3.506 -13.558 -52.621  0.00  0.00    +0.028 C 
BRANCH  25  26
ATOM     26  C   UNL     1      -2.858 -13.040 -51.409  0.00  0.00    +0.065 A 
ATOM     27  C   UNL     1      -3.349 -11.967 -50.679  0.00  0.00    +0.028 A 
ATOM     28  C   UNL     1      -2.639 -11.542 -49.559  0.00  0.00    +0.012 A 
ATOM     29  C   UNL     1      -1.455 -12.192 -49.200  0.00  0.00    +0.000 A 
ATOM     30  C   UNL     1      -0.705 -11.799 -48.077  0.00  0.00    +0.010 A 
ATOM     31  C   UNL     1       0.473 -12.467 -47.748  0.00  0.00    +0.001 A 
ATOM     32  C   UNL     1       0.905 -13.525 -48.540  0.00  0.00    +0.002 A 
ATOM     33  C   UNL     1       0.156 -13.911 -49.656  0.00  0.00    +0.028 A 
ATOM     34  C   UNL     1      -1.021 -13.264 -50.006  0.00  0.00    +0.072 A 
ATOM     35  N   UNL     1      -1.705 -13.673 -51.089  0.00  0.00    -0.247 NA
ENDBRANCH  25  26
ENDBRANCH   5  24
TORSDOF 4
ENDMDL
