MODEL 1
REMARK VINA RESULT:   -12.663      0.000      0.000
REMARK INTER + INTRA:         -16.427
REMARK INTER:                 -15.624
REMARK INTRA:                  -0.803
REMARK UNBOUND:                -0.803
REMARK  Name = CHEMBL33607
REMARK  4 active torsions:
REMARK  status: ('A' for Active; 'I' for Inactive)
REMARK    1  A    between atoms: C_4  and  C_5
REMARK    2  A    between atoms: C_9  and  C_10
REMARK    3  A    between atoms: C_11  and  C_12
REMARK    4  A    between atoms: C_27  and  C_28
REMARK                            x       y       z     vdW  Elec       q    Type
REMARK                         _______ _______ _______ _____ _____    ______ ____
ROOT
ATOM      1  C   UNL     1      -5.396 -13.416 -53.543  0.00  0.00    +0.018 A 
ATOM      2  C   UNL     1      -6.772 -13.239 -53.330  0.00  0.00    +0.011 A 
ATOM      3  C   UNL     1      -7.702 -13.736 -54.244  0.00  0.00    +0.001 A 
ATOM      4  C   UNL     1      -7.269 -14.427 -55.375  0.00  0.00    +0.008 A 
ATOM      5  C   UNL     1      -5.905 -14.640 -55.598  0.00  0.00    -0.024 A 
ATOM      6  C   UNL     1      -4.977 -14.122 -54.683  0.00  0.00    +0.019 A 
ENDROOT
BRANCH   1  10
ATOM      7  O   UNL     1      -3.629 -10.041 -50.610  0.00  0.00    -0.287 OA
ATOM      8  C   UNL     1      -3.553 -11.164 -51.089  0.00  0.00    +0.193 A 
ATOM      9  C   UNL     1      -4.543 -11.641 -52.068  0.00  0.00    +0.098 A 
ATOM     10  C   UNL     1      -4.428 -12.880 -52.568  0.00  0.00    +0.139 A 
ATOM     11  O   UNL     1      -3.430 -13.774 -52.211  0.00  0.00    -0.455 OA
ATOM     12  C   UNL     1      -2.479 -13.366 -51.310  0.00  0.00    +0.139 A 
ATOM     13  C   UNL     1      -1.478 -14.278 -50.985  0.00  0.00    +0.048 A 
ATOM     14  C   UNL     1      -0.483 -13.920 -50.069  0.00  0.00    +0.015 A 
ATOM     15  C   UNL     1      -0.477 -12.648 -49.471  0.00  0.00    +0.024 A 
ATOM     16  C   UNL     1      -1.490 -11.739 -49.808  0.00  0.00    +0.027 A 
ATOM     17  C   UNL     1      -2.483 -12.104 -50.725  0.00  0.00    +0.065 A 
BRANCH  15  18
ATOM     18  C   UNL     1       0.561 -12.278 -48.518  0.00  0.00    +0.204 A 
ATOM     19  N   UNL     1       0.510 -12.616 -47.184  0.00  0.00    -0.108 NA
ATOM     20  N   UNL     1       1.604 -12.124 -46.620  0.00  0.00    -0.049 NA
ATOM     21  N   UNL     1       2.254 -11.522 -47.619  0.00  0.00    -0.176 N 
ATOM     22  N   UNL     1       1.668 -11.577 -48.825  0.00  0.00    -0.133 NA
ATOM     23  H   UNL     1       3.142 -11.050 -47.469  0.00  0.00    +0.214 HD
ENDBRANCH  15  18
ENDBRANCH   1  10
BRANCH   5  24
ATOM     24  C   UNL     1      -5.488 -15.355 -56.813  0.00  0.00    +0.010 C 
ATOM     25  C   UNL     1      -4.205 -15.492 -57.188  0.00  0.00    +0.028 C 
BRANCH  25  26
ATOM     26  C   UNL     1      -3.731 -16.181 -58.395  0.00  0.00    +0.065 A 
ATOM     27  C   UNL     1      -3.824 -15.641 -59.670  0.00  0.00    +0.028 A 
ATOM     28  C   UNL     1      -3.366 -16.394 -60.748  0.00  0.00    +0.012 A 
ATOM     29  C   UNL     1      -2.834 -17.668 -60.530  0.00  0.00    +0.000 A 
ATOM     30  C   UNL     1      -2.357 -18.464 -61.587  0.00  0.00    +0.010 A 
ATOM     31  C   UNL     1      -1.835 -19.730 -61.334  0.00  0.00    +0.001 A 
ATOM     32  C   UNL     1      -1.790 -20.206 -60.028  0.00  0.00    +0.002 A 
ATOM     33  C   UNL     1      -2.266 -19.410 -58.981  0.00  0.00    +0.028 A 
ATOM     34  C   UNL     1      -2.790 -18.144 -59.204  0.00  0.00    +0.072 A 
ATOM     35  N   UNL     1      -3.235 -17.419 -58.163  0.00  0.00    -0.247 NA
ENDBRANCH  25  26
ENDBRANCH   5  24
TORSDOF 4
ENDMDL
MODEL 2
REMARK VINA RESULT:   -12.519      2.846     10.611
REMARK INTER + INTRA:         -16.249
REMARK INTER:                 -15.466
REMARK INTRA:                  -0.783
REMARK UNBOUND:                -0.803
REMARK  Name = CHEMBL33607
REMARK  4 active torsions:
REMARK  status: ('A' for Active; 'I' for Inactive)
REMARK    1  A    between atoms: C_4  and  C_5
REMARK    2  A    between atoms: C_9  and  C_10
REMARK    3  A    between atoms: C_11  and  C_12
REMARK    4  A    between atoms: C_27  and  C_28
REMARK                            x       y       z     vdW  Elec       q    Type
REMARK                         _______ _______ _______ _____ _____    ______ ____
ROOT
ATOM      1  C   UNL     1      -5.301 -15.175 -55.933  0.00  0.00    +0.018 A 
ATOM      2  C   UNL     1      -6.700 -15.198 -55.841  0.00  0.00    +0.011 A 
ATOM      3  C   UNL     1      -7.347 -14.705 -54.707  0.00  0.00    +0.001 A 
ATOM      4  C   UNL     1      -6.602 -14.171 -53.655  0.00  0.00    +0.008 A 
ATOM      5  C   UNL     1      -5.207 -14.111 -53.732  0.00  0.00    -0.024 A 
ATOM      6  C   UNL     1      -4.566 -14.625 -54.869  0.00  0.00    +0.019 A 
ENDROOT
BRANCH   1  10
ATOM      7  O   UNL     1      -3.926 -15.015 -60.536  0.00  0.00    -0.287 OA
ATOM      8  C   UNL     1      -3.946 -15.603 -59.464  0.00  0.00    +0.193 A 
ATOM      9  C   UNL     1      -4.638 -15.031 -58.298  0.00  0.00    +0.098 A 
ATOM     10  C   UNL     1      -4.635 -15.704 -57.138  0.00  0.00    +0.139 A 
ATOM     11  O   UNL     1      -4.001 -16.923 -56.946  0.00  0.00    -0.455 OA
ATOM     12  C   UNL     1      -3.355 -17.497 -58.010  0.00  0.00    +0.139 A 
ATOM     13  C   UNL     1      -2.743 -18.729 -57.793  0.00  0.00    +0.048 A 
ATOM     14  C   UNL     1      -2.066 -19.363 -58.841  0.00  0.00    +0.015 A 
ATOM     15  C   UNL     1      -1.994 -18.773 -60.115  0.00  0.00    +0.024 A 
ATOM     16  C   UNL     1      -2.615 -17.532 -60.320  0.00  0.00    +0.027 A 
ATOM     17  C   UNL     1      -3.291 -16.905 -59.267  0.00  0.00    +0.065 A 
BRANCH  15  18
ATOM     18  C   UNL     1      -1.288 -19.436 -61.203  0.00  0.00    +0.204 A 
ATOM     19  N   UNL     1      -0.425 -18.776 -62.050  0.00  0.00    -0.108 NA
ATOM     20  N   UNL     1       0.032 -19.675 -62.910  0.00  0.00    -0.049 NA
ATOM     21  N   UNL     1      -0.564 -20.815 -62.552  0.00  0.00    -0.176 N 
ATOM     22  N   UNL     1      -1.396 -20.743 -61.502  0.00  0.00    -0.133 NA
ATOM     23  H   UNL     1      -0.394 -21.684 -63.051  0.00  0.00    +0.214 HD
ENDBRANCH  15  18
ENDBRANCH   1  10
BRANCH   5  24
ATOM     24  C   UNL     1      -4.457 -13.560 -52.594  0.00  0.00    +0.010 C 
ATOM     25  C   UNL     1      -3.256 -14.021 -52.206  0.00  0.00    +0.028 C 
BRANCH  25  26
ATOM     26  C   UNL     1      -2.468 -13.521 -51.072  0.00  0.00    +0.065 A 
ATOM     27  C   UNL     1      -2.981 -12.674 -50.100  0.00  0.00    +0.028 A 
ATOM     28  C   UNL     1      -2.137 -12.239 -49.081  0.00  0.00    +0.012 A 
ATOM     29  C   UNL     1      -0.802 -12.653 -49.062  0.00  0.00    +0.000 A 
ATOM     30  C   UNL     1       0.087 -12.241 -48.053  0.00  0.00    +0.010 A 
ATOM     31  C   UNL     1       1.413 -12.670 -48.065  0.00  0.00    +0.001 A 
ATOM     32  C   UNL     1       1.853 -13.508 -49.084  0.00  0.00    +0.002 A 
ATOM     33  C   UNL     1       0.965 -13.914 -50.084  0.00  0.00    +0.028 A 
ATOM     34  C   UNL     1      -0.361 -13.502 -50.096  0.00  0.00    +0.072 A 
ATOM     35  N   UNL     1      -1.175 -13.920 -51.082  0.00  0.00    -0.247 NA
ENDBRANCH  25  26
ENDBRANCH   5  24
TORSDOF 4
ENDMDL
MODEL 3
REMARK VINA RESULT:   -12.284      2.446     10.616
REMARK INTER + INTRA:         -15.959
REMARK INTER:                 -15.092
REMARK INTRA:                  -0.866
REMARK UNBOUND:                -0.803
REMARK  Name = CHEMBL33607
REMARK  4 active torsions:
REMARK  status: ('A' for Active; 'I' for Inactive)
REMARK    1  A    between atoms: C_4  and  C_5
REMARK    2  A    between atoms: C_9  and  C_10
REMARK    3  A    between atoms: C_11  and  C_12
REMARK    4  A    between atoms: C_27  and  C_28
REMARK                            x       y       z     vdW  Elec       q    Type
REMARK                         _______ _______ _______ _____ _____    ______ ____
ROOT
ATOM      1  C   UNL     1      -5.647 -14.057 -54.394  0.00  0.00    +0.018 A 
ATOM      2  C   UNL     1      -6.964 -13.748 -54.023  0.00  0.00    +0.011 A 
ATOM      3  C   UNL     1      -7.244 -13.226 -52.760  0.00  0.00    +0.001 A 
ATOM      4  C   UNL     1      -6.209 -12.994 -51.855  0.00  0.00    +0.008 A 
ATOM      5  C   UNL     1      -4.883 -13.267 -52.208  0.00  0.00    -0.024 A 
ATOM      6  C   UNL     1      -4.614 -13.808 -53.474  0.00  0.00    +0.019 A 
ENDROOT
BRANCH   1  10
ATOM      7  O   UNL     1      -6.761 -15.123 -58.947  0.00  0.00    -0.287 OA
ATOM      8  C   UNL     1      -5.951 -15.138 -58.031  0.00  0.00    +0.193 A 
ATOM      9  C   UNL     1      -6.287 -14.580 -56.711  0.00  0.00    +0.098 A 
ATOM     10  C   UNL     1      -5.371 -14.612 -55.733  0.00  0.00    +0.139 A 
ATOM     11  O   UNL     1      -4.093 -15.130 -55.878  0.00  0.00    -0.455 OA
ATOM     12  C   UNL     1      -3.742 -15.671 -57.089  0.00  0.00    +0.139 A 
ATOM     13  C   UNL     1      -2.459 -16.202 -57.200  0.00  0.00    +0.048 A 
ATOM     14  C   UNL     1      -2.044 -16.765 -58.412  0.00  0.00    +0.015 A 
ATOM     15  C   UNL     1      -2.905 -16.805 -59.522  0.00  0.00    +0.024 A 
ATOM     16  C   UNL     1      -4.194 -16.268 -59.396  0.00  0.00    +0.027 A 
ATOM     17  C   UNL     1      -4.603 -15.707 -58.181  0.00  0.00    +0.065 A 
BRANCH  15  18
ATOM     18  C   UNL     1      -2.468 -17.393 -60.782  0.00  0.00    +0.204 A 
ATOM     19  N   UNL     1      -3.054 -17.095 -61.992  0.00  0.00    -0.108 NA
ATOM     20  N   UNL     1      -2.414 -17.800 -62.913  0.00  0.00    -0.049 NA
ATOM     21  N   UNL     1      -1.489 -18.480 -62.232  0.00  0.00    -0.176 N 
ATOM     22  N   UNL     1      -1.462 -18.278 -60.906  0.00  0.00    -0.133 NA
ATOM     23  H   UNL     1      -0.844 -19.114 -62.696  0.00  0.00    +0.214 HD
ENDBRANCH  15  18
ENDBRANCH   1  10
BRANCH   5  24
ATOM     24  C   UNL     1      -3.822 -13.029 -51.219  0.00  0.00    +0.010 C 
ATOM     25  C   UNL     1      -2.579 -13.527 -51.331  0.00  0.00    +0.028 C 
BRANCH  25  26
ATOM     26  C   UNL     1      -1.485 -13.333 -50.371  0.00  0.00    +0.065 A 
ATOM     27  C   UNL     1      -0.154 -13.590 -50.667  0.00  0.00    +0.028 A 
ATOM     28  C   UNL     1       0.800 -13.397 -49.672  0.00  0.00    +0.012 A 
ATOM     29  C   UNL     1       0.403 -12.960 -48.405  0.00  0.00    +0.000 A 
ATOM     30  C   UNL     1       1.331 -12.750 -47.369  0.00  0.00    +0.010 A 
ATOM     31  C   UNL     1       0.900 -12.317 -46.116  0.00  0.00    +0.001 A 
ATOM     32  C   UNL     1      -0.455 -12.095 -45.895  0.00  0.00    +0.002 A 
ATOM     33  C   UNL     1      -1.372 -12.307 -46.929  0.00  0.00    +0.028 A 
ATOM     34  C   UNL     1      -0.971 -12.737 -48.186  0.00  0.00    +0.072 A 
ATOM     35  N   UNL     1      -1.893 -12.927 -49.147  0.00  0.00    -0.247 NA
ENDBRANCH  25  26
ENDBRANCH   5  24
TORSDOF 4
ENDMDL
