MODEL 1
REMARK VINA RESULT:   -13.299      0.000      0.000
REMARK INTER + INTRA:         -17.269
REMARK INTER:                 -16.409
REMARK INTRA:                  -0.860
REMARK UNBOUND:                -0.860
REMARK  Name = CHEMBL33607
REMARK  4 active torsions:
REMARK  status: ('A' for Active; 'I' for Inactive)
REMARK    1  A    between atoms: C_4  and  C_5
REMARK    2  A    between atoms: C_9  and  C_10
REMARK    3  A    between atoms: C_11  and  C_12
REMARK    4  A    between atoms: C_27  and  C_28
REMARK                            x       y       z     vdW  Elec       q    Type
REMARK                         _______ _______ _______ _____ _____    ______ ____
ROOT
ATOM      1  C   UNL     1     -27.016   4.472   8.961  0.00  0.00    +0.018 A 
ATOM      2  C   UNL     1     -25.900   3.714   9.343  0.00  0.00    +0.011 A 
ATOM      3  C   UNL     1     -26.059   2.502  10.015  0.00  0.00    +0.001 A 
ATOM      4  C   UNL     1     -27.338   2.026  10.303  0.00  0.00    +0.008 A 
ATOM      5  C   UNL     1     -28.469   2.747   9.910  0.00  0.00    -0.024 A 
ATOM      6  C   UNL     1     -28.298   3.974   9.249  0.00  0.00    +0.019 A 
ENDROOT
BRANCH   1  10
ATOM      7  O   UNL     1     -24.468   7.714   6.491  0.00  0.00    -0.287 OA
ATOM      8  C   UNL     1     -25.525   7.376   7.004  0.00  0.00    +0.193 A 
ATOM      9  C   UNL     1     -25.651   6.090   7.707  0.00  0.00    +0.098 A 
ATOM     10  C   UNL     1     -26.828   5.753   8.255  0.00  0.00    +0.139 A 
ATOM     11  O   UNL     1     -27.969   6.539   8.194  0.00  0.00    -0.455 OA
ATOM     12  C   UNL     1     -27.892   7.752   7.558  0.00  0.00    +0.139 A 
ATOM     13  C   UNL     1     -29.048   8.529   7.528  0.00  0.00    +0.048 A 
ATOM     14  C   UNL     1     -29.032   9.774   6.891  0.00  0.00    +0.015 A 
ATOM     15  C   UNL     1     -27.862  10.256   6.279  0.00  0.00    +0.024 A 
ATOM     16  C   UNL     1     -26.705   9.465   6.317  0.00  0.00    +0.027 A 
ATOM     17  C   UNL     1     -26.729   8.220   6.956  0.00  0.00    +0.065 A 
BRANCH  15  18
ATOM     18  C   UNL     1     -27.850  11.554   5.617  0.00  0.00    +0.204 A 
ATOM     19  N   UNL     1     -26.748  12.048   4.954  0.00  0.00    -0.108 NA
ATOM     20  N   UNL     1     -27.087  13.238   4.478  0.00  0.00    -0.049 NA
ATOM     21  N   UNL     1     -28.352  13.407   4.869  0.00  0.00    -0.176 N 
ATOM     22  N   UNL     1     -28.892  12.405   5.578  0.00  0.00    -0.133 NA
ATOM     23  H   UNL     1     -28.872  14.250   4.639  0.00  0.00    +0.214 HD
ENDBRANCH  15  18
ENDBRANCH   1  10
BRANCH   5  24
ATOM     24  C   UNL     1     -29.800   2.222  10.249  0.00  0.00    +0.010 C 
ATOM     25  C   UNL     1     -30.944   2.744   9.777  0.00  0.00    +0.028 C 
BRANCH  25  26
ATOM     26  C   UNL     1     -32.299   2.272  10.092  0.00  0.00    +0.065 A 
ATOM     27  C   UNL     1     -32.608   0.940  10.326  0.00  0.00    +0.028 A 
ATOM     28  C   UNL     1     -33.932   0.599  10.590  0.00  0.00    +0.012 A 
ATOM     29  C   UNL     1     -34.915   1.593  10.607  0.00  0.00    +0.000 A 
ATOM     30  C   UNL     1     -36.265   1.297  10.870  0.00  0.00    +0.010 A 
ATOM     31  C   UNL     1     -37.219   2.312  10.876  0.00  0.00    +0.001 A 
ATOM     32  C   UNL     1     -36.830   3.621  10.618  0.00  0.00    +0.002 A 
ATOM     33  C   UNL     1     -35.487   3.909  10.356  0.00  0.00    +0.028 A 
ATOM     34  C   UNL     1     -34.515   2.918  10.344  0.00  0.00    +0.072 A 
ATOM     35  N   UNL     1     -33.237   3.247  10.086  0.00  0.00    -0.247 NA
ENDBRANCH  25  26
ENDBRANCH   5  24
TORSDOF 4
ENDMDL
MODEL 2
REMARK VINA RESULT:   -12.874      1.404      2.418
REMARK INTER + INTRA:         -16.744
REMARK INTER:                 -15.892
REMARK INTRA:                  -0.853
REMARK UNBOUND:                -0.860
REMARK  Name = CHEMBL33607
REMARK  4 active torsions:
REMARK  status: ('A' for Active; 'I' for Inactive)
REMARK    1  A    between atoms: C_4  and  C_5
REMARK    2  A    between atoms: C_9  and  C_10
REMARK    3  A    between atoms: C_11  and  C_12
REMARK    4  A    between atoms: C_27  and  C_28
REMARK                            x       y       z     vdW  Elec       q    Type
REMARK                         _______ _______ _______ _____ _____    ______ ____
ROOT
ATOM      1  C   UNL     1     -28.688   3.532   9.484  0.00  0.00    +0.018 A 
ATOM      2  C   UNL     1     -27.960   2.515  10.118  0.00  0.00    +0.011 A 
ATOM      3  C   UNL     1     -28.616   1.484  10.791  0.00  0.00    +0.001 A 
ATOM      4  C   UNL     1     -30.009   1.450  10.829  0.00  0.00    +0.008 A 
ATOM      5  C   UNL     1     -30.761   2.436  10.183  0.00  0.00    -0.024 A 
ATOM      6  C   UNL     1     -30.092   3.478   9.523  0.00  0.00    +0.019 A 
ENDROOT
BRANCH   1  10
ATOM      7  O   UNL     1     -24.928   5.465   7.197  0.00  0.00    -0.287 OA
ATOM      8  C   UNL     1     -26.069   5.573   7.624  0.00  0.00    +0.193 A 
ATOM      9  C   UNL     1     -26.724   4.460   8.330  0.00  0.00    +0.098 A 
ATOM     10  C   UNL     1     -27.977   4.616   8.780  0.00  0.00    +0.139 A 
ATOM     11  O   UNL     1     -28.728   5.770   8.612  0.00  0.00    -0.455 OA
ATOM     12  C   UNL     1     -28.151   6.836   7.970  0.00  0.00    +0.139 A 
ATOM     13  C   UNL     1     -28.922   7.988   7.832  0.00  0.00    +0.048 A 
ATOM     14  C   UNL     1     -28.388   9.107   7.183  0.00  0.00    +0.015 A 
ATOM     15  C   UNL     1     -27.081   9.086   6.666  0.00  0.00    +0.024 A 
ATOM     16  C   UNL     1     -26.316   7.919   6.812  0.00  0.00    +0.027 A 
ATOM     17  C   UNL     1     -26.856   6.804   7.463  0.00  0.00    +0.065 A 
BRANCH  15  18
ATOM     18  C   UNL     1     -26.529  10.253   5.991  0.00  0.00    +0.204 A 
ATOM     19  N   UNL     1     -27.301  11.141   5.275  0.00  0.00    -0.108 NA
ATOM     20  N   UNL     1     -26.481  12.069   4.802  0.00  0.00    -0.049 NA
ATOM     21  N   UNL     1     -25.275  11.706   5.244  0.00  0.00    -0.176 N 
ATOM     22  N   UNL     1     -25.227  10.591   5.987  0.00  0.00    -0.133 NA
ATOM     23  H   UNL     1     -24.443  12.248   5.025  0.00  0.00    +0.214 HD
ENDBRANCH  15  18
ENDBRANCH   1  10
BRANCH   5  24
ATOM     24  C   UNL     1     -32.228   2.377  10.263  0.00  0.00    +0.010 C 
ATOM     25  C   UNL     1     -33.019   3.458  10.166  0.00  0.00    +0.028 C 
BRANCH  25  26
ATOM     26  C   UNL     1     -34.485   3.462  10.252  0.00  0.00    +0.065 A 
ATOM     27  C   UNL     1     -35.236   2.332  10.542  0.00  0.00    +0.028 A 
ATOM     28  C   UNL     1     -36.624   2.443  10.573  0.00  0.00    +0.012 A 
ATOM     29  C   UNL     1     -37.228   3.675  10.306  0.00  0.00    +0.000 A 
ATOM     30  C   UNL     1     -38.625   3.837  10.328  0.00  0.00    +0.010 A 
ATOM     31  C   UNL     1     -39.194   5.079  10.054  0.00  0.00    +0.001 A 
ATOM     32  C   UNL     1     -38.372   6.160   9.758  0.00  0.00    +0.002 A 
ATOM     33  C   UNL     1     -36.983   5.994   9.738  0.00  0.00    +0.028 A 
ATOM     34  C   UNL     1     -36.390   4.768  10.007  0.00  0.00    +0.072 A 
ATOM     35  N   UNL     1     -35.049   4.660   9.974  0.00  0.00    -0.247 NA
ENDBRANCH  25  26
ENDBRANCH   5  24
TORSDOF 4
ENDMDL
MODEL 3
REMARK VINA RESULT:   -12.631      3.111      5.372
REMARK INTER + INTRA:         -16.444
REMARK INTER:                 -15.622
REMARK INTRA:                  -0.822
REMARK UNBOUND:                -0.860
REMARK  Name = CHEMBL33607
REMARK  4 active torsions:
REMARK  status: ('A' for Active; 'I' for Inactive)
REMARK    1  A    between atoms: C_4  and  C_5
REMARK    2  A    between atoms: C_9  and  C_10
REMARK    3  A    between atoms: C_11  and  C_12
REMARK    4  A    between atoms: C_27  and  C_28
REMARK                            x       y       z     vdW  Elec       q    Type
REMARK                         _______ _______ _______ _____ _____    ______ ____
ROOT
ATOM      1  C   UNL     1     -33.017   5.579   8.397  0.00  0.00    +0.018 A 
ATOM      2  C   UNL     1     -34.361   5.471   8.010  0.00  0.00    +0.011 A 
ATOM      3  C   UNL     1     -35.182   4.486   8.559  0.00  0.00    +0.001 A 
ATOM      4  C   UNL     1     -34.674   3.602   9.510  0.00  0.00    +0.008 A 
ATOM      5  C   UNL     1     -33.345   3.704   9.934  0.00  0.00    -0.024 A 
ATOM      6  C   UNL     1     -32.522   4.687   9.364  0.00  0.00    +0.019 A 
ENDROOT
BRANCH   1  10
ATOM      7  O   UNL     1     -32.195   9.491   5.728  0.00  0.00    -0.287 OA
ATOM      8  C   UNL     1     -31.769   8.604   6.454  0.00  0.00    +0.193 A 
ATOM      9  C   UNL     1     -32.668   7.579   7.008  0.00  0.00    +0.098 A 
ATOM     10  C   UNL     1     -32.163   6.624   7.803  0.00  0.00    +0.139 A 
ATOM     11  O   UNL     1     -30.827   6.536   8.164  0.00  0.00    -0.455 OA
ATOM     12  C   UNL     1     -29.952   7.465   7.660  0.00  0.00    +0.139 A 
ATOM     13  C   UNL     1     -28.614   7.341   8.023  0.00  0.00    +0.048 A 
ATOM     14  C   UNL     1     -27.675   8.261   7.542  0.00  0.00    +0.015 A 
ATOM     15  C   UNL     1     -28.064   9.312   6.694  0.00  0.00    +0.024 A 
ATOM     16  C   UNL     1     -29.415   9.424   6.335  0.00  0.00    +0.027 A 
ATOM     17  C   UNL     1     -30.348   8.501   6.819  0.00  0.00    +0.065 A 
BRANCH  15  18
ATOM     18  C   UNL     1     -27.084  10.268   6.195  0.00  0.00    +0.204 A 
ATOM     19  N   UNL     1     -27.431  11.482   5.647  0.00  0.00    -0.108 NA
ATOM     20  N   UNL     1     -26.303  12.086   5.303  0.00  0.00    -0.049 NA
ATOM     21  N   UNL     1     -25.343  11.226   5.652  0.00  0.00    -0.176 N 
ATOM     22  N   UNL     1     -25.752  10.077   6.211  0.00  0.00    -0.133 NA
ATOM     23  H   UNL     1     -24.360  11.435   5.499  0.00  0.00    +0.214 HD
ENDBRANCH  15  18
ENDBRANCH   1  10
BRANCH   5  24
ATOM     24  C   UNL     1     -32.840   2.741  10.924  0.00  0.00    +0.010 C 
ATOM     25  C   UNL     1     -32.413   1.508  10.607  0.00  0.00    +0.028 C 
BRANCH  25  26
ATOM     26  C   UNL     1     -31.913   0.501  11.552  0.00  0.00    +0.065 A 
ATOM     27  C   UNL     1     -32.080  -0.865  11.373  0.00  0.00    +0.028 A 
ATOM     28  C   UNL     1     -31.587  -1.730  12.346  0.00  0.00    +0.012 A 
ATOM     29  C   UNL     1     -30.948  -1.212  13.476  0.00  0.00    +0.000 A 
ATOM     30  C   UNL     1     -30.432  -2.047  14.484  0.00  0.00    +0.010 A 
ATOM     31  C   UNL     1     -29.803  -1.498  15.599  0.00  0.00    +0.001 A 
ATOM     32  C   UNL     1     -29.687  -0.116  15.710  0.00  0.00    +0.002 A 
ATOM     33  C   UNL     1     -30.201   0.708  14.705  0.00  0.00    +0.028 A 
ATOM     34  C   UNL     1     -30.833   0.188  13.584  0.00  0.00    +0.072 A 
ATOM     35  N   UNL     1     -31.311   1.024  12.646  0.00  0.00    -0.247 NA
ENDBRANCH  25  26
ENDBRANCH   5  24
TORSDOF 4
ENDMDL
