MODEL 1
REMARK VINA RESULT:   -13.478      0.000      0.000
REMARK INTER + INTRA:         -17.477
REMARK INTER:                 -16.630
REMARK INTRA:                  -0.848
REMARK UNBOUND:                -0.848
REMARK  Name = CHEMBL33607
REMARK  4 active torsions:
REMARK  status: ('A' for Active; 'I' for Inactive)
REMARK    1  A    between atoms: C_4  and  C_5
REMARK    2  A    between atoms: C_9  and  C_10
REMARK    3  A    between atoms: C_11  and  C_12
REMARK    4  A    between atoms: C_27  and  C_28
REMARK                            x       y       z     vdW  Elec       q    Type
REMARK                         _______ _______ _______ _____ _____    ______ ____
ROOT
ATOM      1  C   UNL     1     -29.155   3.467   9.706  0.00  0.00    +0.018 A 
ATOM      2  C   UNL     1     -28.420   2.515  10.428  0.00  0.00    +0.011 A 
ATOM      3  C   UNL     1     -29.066   1.476  11.098  0.00  0.00    +0.001 A 
ATOM      4  C   UNL     1     -30.455   1.368  11.047  0.00  0.00    +0.008 A 
ATOM      5  C   UNL     1     -31.211   2.288  10.313  0.00  0.00    -0.024 A 
ATOM      6  C   UNL     1     -30.553   3.339   9.656  0.00  0.00    +0.019 A 
ENDROOT
BRANCH   1  10
ATOM      7  O   UNL     1     -25.423   5.438   7.406  0.00  0.00    -0.287 OA
ATOM      8  C   UNL     1     -26.560   5.537   7.843  0.00  0.00    +0.193 A 
ATOM      9  C   UNL     1     -27.204   4.415   8.545  0.00  0.00    +0.098 A 
ATOM     10  C   UNL     1     -28.455   4.560   9.007  0.00  0.00    +0.139 A 
ATOM     11  O   UNL     1     -29.212   5.713   8.857  0.00  0.00    -0.455 OA
ATOM     12  C   UNL     1     -28.645   6.787   8.219  0.00  0.00    +0.139 A 
ATOM     13  C   UNL     1     -29.421   7.937   8.099  0.00  0.00    +0.048 A 
ATOM     14  C   UNL     1     -28.898   9.065   7.457  0.00  0.00    +0.015 A 
ATOM     15  C   UNL     1     -27.596   9.054   6.928  0.00  0.00    +0.024 A 
ATOM     16  C   UNL     1     -26.824   7.890   7.057  0.00  0.00    +0.027 A 
ATOM     17  C   UNL     1     -27.354   6.766   7.701  0.00  0.00    +0.065 A 
BRANCH  15  18
ATOM     18  C   UNL     1     -27.055  10.230   6.259  0.00  0.00    +0.204 A 
ATOM     19  N   UNL     1     -27.829  11.307   5.891  0.00  0.00    -0.108 NA
ATOM     20  N   UNL     1     -27.020  12.184   5.314  0.00  0.00    -0.049 NA
ATOM     21  N   UNL     1     -25.816  11.608   5.357  0.00  0.00    -0.176 N 
ATOM     22  N   UNL     1     -25.761  10.396   5.929  0.00  0.00    -0.133 NA
ATOM     23  H   UNL     1     -24.993  12.066   4.977  0.00  0.00    +0.214 HD
ENDBRANCH  15  18
ENDBRANCH   1  10
BRANCH   5  24
ATOM     24  C   UNL     1     -32.675   2.153  10.299  0.00  0.00    +0.010 C 
ATOM     25  C   UNL     1     -33.516   3.199  10.358  0.00  0.00    +0.028 C 
BRANCH  25  26
ATOM     26  C   UNL     1     -34.982   3.125  10.362  0.00  0.00    +0.065 A 
ATOM     27  C   UNL     1     -35.690   2.004  10.773  0.00  0.00    +0.028 A 
ATOM     28  C   UNL     1     -37.080   2.033  10.711  0.00  0.00    +0.012 A 
ATOM     29  C   UNL     1     -37.730   3.174  10.234  0.00  0.00    +0.000 A 
ATOM     30  C   UNL     1     -39.133   3.250  10.154  0.00  0.00    +0.010 A 
ATOM     31  C   UNL     1     -39.749   4.403   9.671  0.00  0.00    +0.001 A 
ATOM     32  C   UNL     1     -38.968   5.479   9.265  0.00  0.00    +0.002 A 
ATOM     33  C   UNL     1     -37.574   5.398   9.346  0.00  0.00    +0.028 A 
ATOM     34  C   UNL     1     -36.934   4.262   9.824  0.00  0.00    +0.072 A 
ATOM     35  N   UNL     1     -35.591   4.234   9.881  0.00  0.00    -0.247 NA
ENDBRANCH  25  26
ENDBRANCH   5  24
TORSDOF 4
ENDMDL
MODEL 2
REMARK VINA RESULT:   -12.608      2.328     10.110
REMARK INTER + INTRA:         -16.404
REMARK INTER:                 -15.544
REMARK INTRA:                  -0.861
REMARK UNBOUND:                -0.848
REMARK  Name = CHEMBL33607
REMARK  4 active torsions:
REMARK  status: ('A' for Active; 'I' for Inactive)
REMARK    1  A    between atoms: C_4  and  C_5
REMARK    2  A    between atoms: C_9  and  C_10
REMARK    3  A    between atoms: C_11  and  C_12
REMARK    4  A    between atoms: C_27  and  C_28
REMARK                            x       y       z     vdW  Elec       q    Type
REMARK                         _______ _______ _______ _____ _____    ______ ____
ROOT
ATOM      1  C   UNL     1     -29.651   2.845   9.890  0.00  0.00    +0.018 A 
ATOM      2  C   UNL     1     -28.671   2.000  10.432  0.00  0.00    +0.011 A 
ATOM      3  C   UNL     1     -27.317   2.308  10.304  0.00  0.00    +0.001 A 
ATOM      4  C   UNL     1     -26.925   3.471   9.642  0.00  0.00    +0.008 A 
ATOM      5  C   UNL     1     -27.881   4.345   9.116  0.00  0.00    -0.024 A 
ATOM      6  C   UNL     1     -29.240   4.018   9.235  0.00  0.00    +0.019 A 
ENDROOT
BRANCH   1  10
ATOM      7  O   UNL     1     -33.315  -0.160  10.702  0.00  0.00    -0.287 OA
ATOM      8  C   UNL     1     -32.915   0.968  10.449  0.00  0.00    +0.193 A 
ATOM      9  C   UNL     1     -31.478   1.250  10.307  0.00  0.00    +0.098 A 
ATOM     10  C   UNL     1     -31.079   2.501  10.032  0.00  0.00    +0.139 A 
ATOM     11  O   UNL     1     -31.939   3.579   9.884  0.00  0.00    -0.455 OA
ATOM     12  C   UNL     1     -33.288   3.357   9.997  0.00  0.00    +0.139 A 
ATOM     13  C   UNL     1     -34.128   4.454   9.825  0.00  0.00    +0.048 A 
ATOM     14  C   UNL     1     -35.514   4.291   9.932  0.00  0.00    +0.015 A 
ATOM     15  C   UNL     1     -36.072   3.032  10.211  0.00  0.00    +0.024 A 
ATOM     16  C   UNL     1     -35.215   1.935  10.381  0.00  0.00    +0.027 A 
ATOM     17  C   UNL     1     -33.830   2.106  10.272  0.00  0.00    +0.065 A 
BRANCH  15  18
ATOM     18  C   UNL     1     -37.516   2.866  10.321  0.00  0.00    +0.204 A 
ATOM     19  N   UNL     1     -38.105   1.719  10.805  0.00  0.00    -0.108 NA
ATOM     20  N   UNL     1     -39.415   1.913  10.765  0.00  0.00    -0.049 NA
ATOM     21  N   UNL     1     -39.557   3.143  10.266  0.00  0.00    -0.176 N 
ATOM     22  N   UNL     1     -38.423   3.795   9.968  0.00  0.00    -0.133 NA
ATOM     23  H   UNL     1     -40.474   3.557  10.123  0.00  0.00    +0.214 HD
ENDBRANCH  15  18
ENDBRANCH   1  10
BRANCH   5  24
ATOM     24  C   UNL     1     -27.427   5.551   8.408  0.00  0.00    +0.010 C 
ATOM     25  C   UNL     1     -28.201   6.632   8.215  0.00  0.00    +0.028 C 
BRANCH  25  26
ATOM     26  C   UNL     1     -27.808   7.856   7.506  0.00  0.00    +0.065 A 
ATOM     27  C   UNL     1     -26.526   8.082   7.024  0.00  0.00    +0.028 A 
ATOM     28  C   UNL     1     -26.256   9.291   6.388  0.00  0.00    +0.012 A 
ATOM     29  C   UNL     1     -27.267  10.246   6.255  0.00  0.00    +0.000 A 
ATOM     30  C   UNL     1     -27.042  11.480   5.618  0.00  0.00    +0.010 A 
ATOM     31  C   UNL     1     -28.072  12.412   5.505  0.00  0.00    +0.001 A 
ATOM     32  C   UNL     1     -29.326  12.115   6.027  0.00  0.00    +0.002 A 
ATOM     33  C   UNL     1     -29.544  10.887   6.659  0.00  0.00    +0.028 A 
ATOM     34  C   UNL     1     -28.536   9.940   6.785  0.00  0.00    +0.072 A 
ATOM     35  N   UNL     1     -28.797   8.774   7.402  0.00  0.00    -0.247 NA
ENDBRANCH  25  26
ENDBRANCH   5  24
TORSDOF 4
ENDMDL
MODEL 3
REMARK VINA RESULT:   -12.383      4.290      6.071
REMARK INTER + INTRA:         -16.127
REMARK INTER:                 -15.269
REMARK INTRA:                  -0.858
REMARK UNBOUND:                -0.848
REMARK  Name = CHEMBL33607
REMARK  4 active torsions:
REMARK  status: ('A' for Active; 'I' for Inactive)
REMARK    1  A    between atoms: C_4  and  C_5
REMARK    2  A    between atoms: C_9  and  C_10
REMARK    3  A    between atoms: C_11  and  C_12
REMARK    4  A    between atoms: C_27  and  C_28
REMARK                            x       y       z     vdW  Elec       q    Type
REMARK                         _______ _______ _______ _____ _____    ______ ____
ROOT
ATOM      1  C   UNL     1     -29.506   6.973   8.173  0.00  0.00    +0.018 A 
ATOM      2  C   UNL     1     -29.366   8.216   7.540  0.00  0.00    +0.011 A 
ATOM      3  C   UNL     1     -30.490   8.954   7.165  0.00  0.00    +0.001 A 
ATOM      4  C   UNL     1     -31.768   8.463   7.429  0.00  0.00    +0.008 A 
ATOM      5  C   UNL     1     -31.936   7.238   8.083  0.00  0.00    -0.024 A 
ATOM      6  C   UNL     1     -30.800   6.496   8.441  0.00  0.00    +0.019 A 
ENDROOT
BRANCH   1  10
ATOM      7  O   UNL     1     -24.769   6.208   8.458  0.00  0.00    -0.287 OA
ATOM      8  C   UNL     1     -25.910   5.840   8.696  0.00  0.00    +0.193 A 
ATOM      9  C   UNL     1     -27.070   6.642   8.276  0.00  0.00    +0.098 A 
ATOM     10  C   UNL     1     -28.306   6.205   8.558  0.00  0.00    +0.139 A 
ATOM     11  O   UNL     1     -28.581   5.034   9.248  0.00  0.00    -0.455 OA
ATOM     12  C   UNL     1     -27.529   4.250   9.647  0.00  0.00    +0.139 A 
ATOM     13  C   UNL     1     -27.834   3.070  10.321  0.00  0.00    +0.048 A 
ATOM     14  C   UNL     1     -26.803   2.231  10.755  0.00  0.00    +0.015 A 
ATOM     15  C   UNL     1     -25.457   2.562  10.522  0.00  0.00    +0.024 A 
ATOM     16  C   UNL     1     -25.163   3.752   9.842  0.00  0.00    +0.027 A 
ATOM     17  C   UNL     1     -26.200   4.587   9.409  0.00  0.00    +0.065 A 
BRANCH  15  18
ATOM     18  C   UNL     1     -24.385   1.685  10.976  0.00  0.00    +0.204 A 
ATOM     19  N   UNL     1     -23.100   1.754  10.486  0.00  0.00    -0.108 NA
ATOM     20  N   UNL     1     -22.398   0.821  11.114  0.00  0.00    -0.049 NA
ATOM     21  N   UNL     1     -23.274   0.242  11.939  0.00  0.00    -0.176 N 
ATOM     22  N   UNL     1     -24.525   0.725  11.908  0.00  0.00    -0.133 NA
ATOM     23  H   UNL     1     -23.002  -0.522  12.552  0.00  0.00    +0.214 HD
ENDBRANCH  15  18
ENDBRANCH   1  10
BRANCH   5  24
ATOM     24  C   UNL     1     -33.300   6.744   8.326  0.00  0.00    +0.010 C 
ATOM     25  C   UNL     1     -33.673   5.470   8.122  0.00  0.00    +0.028 C 
BRANCH  25  26
ATOM     26  C   UNL     1     -35.020   4.925   8.333  0.00  0.00    +0.065 A 
ATOM     27  C   UNL     1     -35.405   3.657   7.919  0.00  0.00    +0.028 A 
ATOM     28  C   UNL     1     -36.717   3.250   8.147  0.00  0.00    +0.012 A 
ATOM     29  C   UNL     1     -37.613   4.119   8.775  0.00  0.00    +0.000 A 
ATOM     30  C   UNL     1     -38.947   3.752   9.028  0.00  0.00    +0.010 A 
ATOM     31  C   UNL     1     -39.816   4.643   9.654  0.00  0.00    +0.001 A 
ATOM     32  C   UNL     1     -39.357   5.902  10.026  0.00  0.00    +0.002 A 
ATOM     33  C   UNL     1     -38.030   6.262   9.771  0.00  0.00    +0.028 A 
ATOM     34  C   UNL     1     -37.143   5.393   9.150  0.00  0.00    +0.072 A 
ATOM     35  N   UNL     1     -35.877   5.788   8.927  0.00  0.00    -0.247 NA
ENDBRANCH  25  26
ENDBRANCH   5  24
TORSDOF 4
ENDMDL
