MODEL 1
REMARK VINA RESULT:   -13.086      0.000      0.000
REMARK INTER + INTRA:         -18.634
REMARK INTER:                 -18.058
REMARK INTRA:                  -0.575
REMARK UNBOUND:                -0.575
REMARK  Name = CHEMBL16349
REMARK  7 active torsions:
REMARK  status: ('A' for Active; 'I' for Inactive)
REMARK    1  A    between atoms: C_6  and  O_7
REMARK    2  A    between atoms: C_8  and  C_9
REMARK    3  A    between atoms: C_9  and  C_10
REMARK    4  A    between atoms: C_9  and  C_30
REMARK    5  A    between atoms: C_14  and  N_15
REMARK    6  A    between atoms: N_15  and  S_16
REMARK    7  A    between atoms: S_16  and  C_19
REMARK                            x       y       z     vdW  Elec       q    Type
REMARK                         _______ _______ _______ _____ _____    ______ ____
ROOT
ATOM      1  C   UNL     1      -6.470 -12.617 -53.470  0.00  0.00    -0.038 A 
ATOM      2  C   UNL     1      -6.209 -11.298 -53.866  0.00  0.00    +0.004 A 
ATOM      3  C   UNL     1      -5.253 -10.528 -53.202  0.00  0.00    +0.002 A 
ATOM      4  C   UNL     1      -4.541 -11.069 -52.134  0.00  0.00    +0.024 A 
ATOM      5  C   UNL     1      -4.780 -12.383 -51.728  0.00  0.00    +0.048 A 
ATOM      6  C   UNL     1      -5.757 -13.140 -52.374  0.00  0.00    +0.028 A 
ENDROOT
BRANCH   5   7
ATOM      7  N   UNL     1      -4.025 -12.895 -50.637  0.00  0.00    -0.216 N 
ATOM      8  H   UNL     1      -4.443 -12.883 -49.710  0.00  0.00    +0.174 HD
BRANCH   7   9
ATOM      9  S   UNL     1      -2.344 -12.730 -50.584  0.00  0.00    +0.074 S 
ATOM     10  O   UNL     1      -1.853 -13.856 -51.359  0.00  0.00    -0.150 OA
ATOM     11  O   UNL     1      -1.978 -11.387 -50.974  0.00  0.00    -0.150 OA
BRANCH   9  12
ATOM     12  C   UNL     1      -1.945 -13.073 -48.886  0.00  0.00    +0.134 A 
ATOM     13  C   UNL     1      -2.954 -13.674 -48.108  0.00  0.00    +0.031 A 
ATOM     14  C   UNL     1      -2.727 -13.961 -46.770  0.00  0.00    +0.003 A 
ATOM     15  C   UNL     1      -1.492 -13.650 -46.212  0.00  0.00    +0.010 A 
ATOM     16  C   UNL     1      -0.480 -13.062 -46.990  0.00  0.00    +0.002 A 
ATOM     17  C   UNL     1       0.758 -12.751 -46.408  0.00  0.00    +0.011 A 
ATOM     18  C   UNL     1       1.762 -12.170 -47.168  0.00  0.00    +0.020 A 
ATOM     19  C   UNL     1       1.493 -11.921 -48.495  0.00  0.00    +0.111 A 
ATOM     20  N   UNL     1       0.310 -12.204 -49.081  0.00  0.00    -0.253 NA
ATOM     21  C   UNL     1      -0.684 -12.767 -48.361  0.00  0.00    +0.097 A 
ENDBRANCH   9  12
ENDBRANCH   7   9
ENDBRANCH   5   7
BRANCH   1  22
ATOM     22  C   UNL     1      -7.516 -13.495 -54.168  0.00  0.00    +0.063 C 
BRANCH  22  29
ATOM     23  O   UNL     1      -6.041 -15.997 -54.397  0.00  0.00    -0.287 OA
ATOM     24  C   UNL     1      -6.200 -15.352 -55.430  0.00  0.00    +0.196 A 
ATOM     25  C   UNL     1      -5.578 -15.822 -56.707  0.00  0.00    +0.038 A 
ATOM     26  C   UNL     1      -5.897 -15.160 -57.832  0.00  0.00    +0.116 A 
ATOM     27  O   UNL     1      -6.741 -14.067 -57.848  0.00  0.00    -0.429 OA
ATOM     28  C   UNL     1      -7.218 -13.549 -56.668  0.00  0.00    +0.292 A 
ATOM     29  C   UNL     1      -7.008 -14.104 -55.463  0.00  0.00    +0.087 A 
ATOM     30  C   UNL     1      -5.355 -15.495 -59.197  0.00  0.00    +0.075 C 
ATOM     31  C   UNL     1      -3.965 -14.891 -59.392  0.00  0.00    +0.008 C 
ATOM     32  C   UNL     1      -2.821 -15.903 -59.443  0.00  0.00    +0.000 C 
ATOM     33  C   UNL     1      -2.855 -17.073 -58.460  0.00  0.00    +0.000 C 
ATOM     34  C   UNL     1      -3.190 -16.723 -57.007  0.00  0.00    +0.005 C 
ATOM     35  C   UNL     1      -4.654 -17.010 -56.626  0.00  0.00    +0.042 C 
BRANCH  28  36
ATOM     36  O   UNL     1      -7.960 -12.394 -56.787  0.00  0.00    -0.480 OA
ATOM     37  H   UNL     1      -7.325 -11.723 -57.096  0.00  0.00    +0.295 HD
ENDBRANCH  28  36
ENDBRANCH  22  29
BRANCH  22  38
ATOM     38  C   UNL     1      -8.252 -14.391 -53.176  0.00  0.00    +0.001 C 
ATOM     39  C   UNL     1      -9.395 -13.845 -52.349  0.00  0.00    +0.005 C 
ATOM     40  C   UNL     1      -9.655 -14.924 -53.363  0.00  0.00    +0.005 C 
ENDBRANCH  22  38
ENDBRANCH   1  22
TORSDOF 7
ENDMDL
