MODEL 1
REMARK VINA RESULT:   -13.652      0.000      0.000
REMARK INTER + INTRA:         -19.409
REMARK INTER:                 -18.840
REMARK INTRA:                  -0.570
REMARK UNBOUND:                -0.570
REMARK  Name = CHEMBL16349
REMARK  7 active torsions:
REMARK  status: ('A' for Active; 'I' for Inactive)
REMARK    1  A    between atoms: C_6  and  O_7
REMARK    2  A    between atoms: C_8  and  C_9
REMARK    3  A    between atoms: C_9  and  C_10
REMARK    4  A    between atoms: C_9  and  C_30
REMARK    5  A    between atoms: C_14  and  N_15
REMARK    6  A    between atoms: N_15  and  S_16
REMARK    7  A    between atoms: S_16  and  C_19
REMARK                            x       y       z     vdW  Elec       q    Type
REMARK                         _______ _______ _______ _____ _____    ______ ____
ROOT
ATOM      1  C   UNL     1      -6.310 -12.581 -53.433  0.00  0.00    -0.038 A 
ATOM      2  C   UNL     1      -6.029 -11.274 -53.857  0.00  0.00    +0.004 A 
ATOM      3  C   UNL     1      -5.069 -10.501 -53.203  0.00  0.00    +0.002 A 
ATOM      4  C   UNL     1      -4.372 -11.026 -52.117  0.00  0.00    +0.024 A 
ATOM      5  C   UNL     1      -4.631 -12.327 -51.684  0.00  0.00    +0.048 A 
ATOM      6  C   UNL     1      -5.613 -13.087 -52.320  0.00  0.00    +0.028 A 
ENDROOT
BRANCH   5   7
ATOM      7  N   UNL     1      -3.891 -12.823 -50.575  0.00  0.00    -0.216 N 
ATOM      8  H   UNL     1      -4.356 -12.895 -49.674  0.00  0.00    +0.174 HD
BRANCH   7   9
ATOM      9  S   UNL     1      -2.237 -12.512 -50.419  0.00  0.00    +0.074 S 
ATOM     10  O   UNL     1      -1.605 -13.518 -51.253  0.00  0.00    -0.150 OA
ATOM     11  O   UNL     1      -1.983 -11.113 -50.680  0.00  0.00    -0.150 OA
BRANCH   9  12
ATOM     12  C   UNL     1      -1.886 -12.958 -48.734  0.00  0.00    +0.134 A 
ATOM     13  C   UNL     1      -2.895 -13.657 -48.042  0.00  0.00    +0.031 A 
ATOM     14  C   UNL     1      -2.705 -14.030 -46.720  0.00  0.00    +0.003 A 
ATOM     15  C   UNL     1      -1.506 -13.708 -46.093  0.00  0.00    +0.010 A 
ATOM     16  C   UNL     1      -0.494 -13.023 -46.785  0.00  0.00    +0.002 A 
ATOM     17  C   UNL     1       0.706 -12.702 -46.134  0.00  0.00    +0.011 A 
ATOM     18  C   UNL     1       1.710 -12.026 -46.810  0.00  0.00    +0.020 A 
ATOM     19  C   UNL     1       1.479 -11.692 -48.125  0.00  0.00    +0.111 A 
ATOM     20  N   UNL     1       0.333 -11.983 -48.777  0.00  0.00    -0.253 NA
ATOM     21  C   UNL     1      -0.661 -12.639 -48.139  0.00  0.00    +0.097 A 
ENDBRANCH   9  12
ENDBRANCH   7   9
ENDBRANCH   5   7
BRANCH   1  22
ATOM     22  C   UNL     1      -7.362 -13.461 -54.119  0.00  0.00    +0.063 C 
BRANCH  22  29
ATOM     23  O   UNL     1      -5.877 -15.951 -54.405  0.00  0.00    -0.287 OA
ATOM     24  C   UNL     1      -6.058 -15.295 -55.427  0.00  0.00    +0.196 A 
ATOM     25  C   UNL     1      -5.458 -15.747 -56.720  0.00  0.00    +0.038 A 
ATOM     26  C   UNL     1      -5.802 -15.073 -57.831  0.00  0.00    +0.116 A 
ATOM     27  O   UNL     1      -6.653 -13.986 -57.820  0.00  0.00    -0.429 OA
ATOM     28  C   UNL     1      -7.111 -13.484 -56.624  0.00  0.00    +0.292 A 
ATOM     29  C   UNL     1      -6.875 -14.052 -55.430  0.00  0.00    +0.087 A 
ATOM     30  C   UNL     1      -5.284 -15.389 -59.211  0.00  0.00    +0.075 C 
ATOM     31  C   UNL     1      -3.901 -14.774 -59.425  0.00  0.00    +0.008 C 
ATOM     32  C   UNL     1      -2.752 -15.779 -59.509  0.00  0.00    +0.000 C 
ATOM     33  C   UNL     1      -2.761 -16.960 -58.539  0.00  0.00    +0.000 C 
ATOM     34  C   UNL     1      -3.071 -16.629 -57.076  0.00  0.00    +0.005 C 
ATOM     35  C   UNL     1      -4.526 -16.930 -56.671  0.00  0.00    +0.042 C 
BRANCH  28  36
ATOM     36  O   UNL     1      -7.862 -12.332 -56.716  0.00  0.00    -0.480 OA
ATOM     37  H   UNL     1      -7.565 -11.909 -57.542  0.00  0.00    +0.295 HD
ENDBRANCH  28  36
ENDBRANCH  22  29
BRANCH  22  38
ATOM     38  C   UNL     1      -8.069 -14.374 -53.122  0.00  0.00    +0.001 C 
ATOM     39  C   UNL     1      -9.246 -13.868 -52.318  0.00  0.00    +0.005 C 
ATOM     40  C   UNL     1      -9.444 -14.973 -53.317  0.00  0.00    +0.005 C 
ENDBRANCH  22  38
ENDBRANCH   1  22
TORSDOF 7
ENDMDL
MODEL 2
REMARK VINA RESULT:   -11.542      5.323      9.047
REMARK INTER + INTRA:         -16.498
REMARK INTER:                 -15.538
REMARK INTRA:                  -0.960
REMARK UNBOUND:                -0.570
REMARK  Name = CHEMBL16349
REMARK  7 active torsions:
REMARK  status: ('A' for Active; 'I' for Inactive)
REMARK    1  A    between atoms: C_6  and  O_7
REMARK    2  A    between atoms: C_8  and  C_9
REMARK    3  A    between atoms: C_9  and  C_10
REMARK    4  A    between atoms: C_9  and  C_30
REMARK    5  A    between atoms: C_14  and  N_15
REMARK    6  A    between atoms: N_15  and  S_16
REMARK    7  A    between atoms: S_16  and  C_19
REMARK                            x       y       z     vdW  Elec       q    Type
REMARK                         _______ _______ _______ _____ _____    ______ ____
ROOT
ATOM      1  C   UNL     1      -2.994 -17.543 -58.965  0.00  0.00    -0.038 A 
ATOM      2  C   UNL     1      -3.058 -16.704 -60.087  0.00  0.00    +0.004 A 
ATOM      3  C   UNL     1      -3.652 -15.445 -60.005  0.00  0.00    +0.002 A 
ATOM      4  C   UNL     1      -4.187 -15.002 -58.797  0.00  0.00    +0.024 A 
ATOM      5  C   UNL     1      -4.127 -15.818 -57.666  0.00  0.00    +0.048 A 
ATOM      6  C   UNL     1      -3.561 -17.089 -57.759  0.00  0.00    +0.028 A 
ENDROOT
BRANCH   5   7
ATOM      7  N   UNL     1      -4.681 -15.323 -56.453  0.00  0.00    -0.216 N 
ATOM      8  H   UNL     1      -4.417 -15.773 -55.580  0.00  0.00    +0.174 HD
BRANCH   7   9
ATOM      9  S   UNL     1      -6.249 -14.695 -56.401  0.00  0.00    +0.074 S 
ATOM     10  O   UNL     1      -6.063 -13.262 -56.548  0.00  0.00    -0.150 OA
ATOM     11  O   UNL     1      -7.084 -15.402 -57.347  0.00  0.00    -0.150 OA
BRANCH   9  12
ATOM     12  C   UNL     1      -6.753 -14.969 -54.719  0.00  0.00    +0.134 A 
ATOM     13  C   UNL     1      -5.854 -15.680 -53.897  0.00  0.00    +0.031 A 
ATOM     14  C   UNL     1      -6.179 -15.947 -52.576  0.00  0.00    +0.003 A 
ATOM     15  C   UNL     1      -7.397 -15.502 -52.075  0.00  0.00    +0.010 A 
ATOM     16  C   UNL     1      -8.289 -14.783 -52.889  0.00  0.00    +0.002 A 
ATOM     17  C   UNL     1      -9.515 -14.346 -52.367  0.00  0.00    +0.011 A 
ATOM     18  C   UNL     1     -10.401 -13.636 -53.164  0.00  0.00    +0.020 A 
ATOM     19  C   UNL     1     -10.026 -13.382 -54.463  0.00  0.00    +0.111 A 
ATOM     20  N   UNL     1      -8.855 -13.793 -54.995  0.00  0.00    -0.253 NA
ATOM     21  C   UNL     1      -7.977 -14.489 -54.240  0.00  0.00    +0.097 A 
ENDBRANCH   9  12
ENDBRANCH   7   9
ENDBRANCH   5   7
BRANCH   1  22
ATOM     22  C   UNL     1      -2.357 -18.937 -59.014  0.00  0.00    +0.063 C 
BRANCH  22  29
ATOM     23  O   UNL     1       0.185 -17.579 -59.442  0.00  0.00    -0.287 OA
ATOM     24  C   UNL     1      -0.209 -18.312 -60.344  0.00  0.00    +0.196 A 
ATOM     25  C   UNL     1       0.568 -18.411 -61.618  0.00  0.00    +0.038 A 
ATOM     26  C   UNL     1       0.172 -19.330 -62.516  0.00  0.00    +0.116 A 
ATOM     27  O   UNL     1      -0.919 -20.154 -62.318  0.00  0.00    -0.429 OA
ATOM     28  C   UNL     1      -1.714 -19.988 -61.209  0.00  0.00    +0.292 A 
ATOM     29  C   UNL     1      -1.446 -19.129 -60.213  0.00  0.00    +0.087 A 
ATOM     30  C   UNL     1       0.836 -19.556 -63.850  0.00  0.00    +0.075 C 
ATOM     31  C   UNL     1       0.346 -18.535 -64.877  0.00  0.00    +0.008 C 
ATOM     32  C   UNL     1       1.386 -17.500 -65.306  0.00  0.00    +0.000 C 
ATOM     33  C   UNL     1       2.294 -16.907 -64.228  0.00  0.00    +0.000 C 
ATOM     34  C   UNL     1       1.605 -16.463 -62.935  0.00  0.00    +0.005 C 
ATOM     35  C   UNL     1       1.739 -17.478 -61.785  0.00  0.00    +0.042 C 
BRANCH  28  36
ATOM     36  O   UNL     1      -2.838 -20.785 -61.164  0.00  0.00    -0.480 OA
ATOM     37  H   UNL     1      -2.597 -21.581 -61.672  0.00  0.00    +0.295 HD
ENDBRANCH  28  36
ENDBRANCH  22  29
BRANCH  22  38
ATOM     38  C   UNL     1      -1.863 -19.379 -57.639  0.00  0.00    +0.001 C 
ATOM     39  C   UNL     1      -2.038 -20.810 -57.184  0.00  0.00    +0.005 C 
ATOM     40  C   UNL     1      -0.657 -20.257 -57.393  0.00  0.00    +0.005 C 
ENDBRANCH  22  38
ENDBRANCH   1  22
TORSDOF 7
ENDMDL
