MODEL 1
REMARK VINA RESULT:   -12.143      0.000      0.000
REMARK INTER + INTRA:         -17.664
REMARK INTER:                 -16.757
REMARK INTRA:                  -0.906
REMARK UNBOUND:                -0.906
REMARK  Name = CHEMBL16349
REMARK  7 active torsions:
REMARK  status: ('A' for Active; 'I' for Inactive)
REMARK    1  A    between atoms: C_6  and  O_7
REMARK    2  A    between atoms: C_8  and  C_9
REMARK    3  A    between atoms: C_9  and  C_10
REMARK    4  A    between atoms: C_9  and  C_30
REMARK    5  A    between atoms: C_14  and  N_15
REMARK    6  A    between atoms: N_15  and  S_16
REMARK    7  A    between atoms: S_16  and  C_19
REMARK                            x       y       z     vdW  Elec       q    Type
REMARK                         _______ _______ _______ _____ _____    ______ ____
ROOT
ATOM      1  C   UNL     1     -35.193   4.472   7.562  0.00  0.00    -0.038 A 
ATOM      2  C   UNL     1     -35.140   3.791   6.337  0.00  0.00    +0.004 A 
ATOM      3  C   UNL     1     -34.487   4.347   5.238  0.00  0.00    +0.002 A 
ATOM      4  C   UNL     1     -33.872   5.593   5.347  0.00  0.00    +0.024 A 
ATOM      5  C   UNL     1     -33.908   6.284   6.559  0.00  0.00    +0.048 A 
ATOM      6  C   UNL     1     -34.588   5.740   7.648  0.00  0.00    +0.028 A 
ENDROOT
BRANCH   5   7
ATOM      7  N   UNL     1     -33.262   7.550   6.626  0.00  0.00    -0.216 N 
ATOM      8  H   UNL     1     -32.998   8.007   5.756  0.00  0.00    +0.174 HD
BRANCH   7   9
ATOM      9  S   UNL     1     -32.210   7.929   7.893  0.00  0.00    +0.074 S 
ATOM     10  O   UNL     1     -33.071   8.509   8.908  0.00  0.00    -0.150 OA
ATOM     11  O   UNL     1     -31.411   6.769   8.220  0.00  0.00    -0.150 OA
BRANCH   9  12
ATOM     12  C   UNL     1     -31.231   9.260   7.239  0.00  0.00    +0.134 A 
ATOM     13  C   UNL     1     -31.927  10.416   6.833  0.00  0.00    +0.031 A 
ATOM     14  C   UNL     1     -31.237  11.495   6.298  0.00  0.00    +0.003 A 
ATOM     15  C   UNL     1     -29.854  11.419   6.175  0.00  0.00    +0.010 A 
ATOM     16  C   UNL     1     -29.158  10.272   6.591  0.00  0.00    +0.002 A 
ATOM     17  C   UNL     1     -27.763  10.212   6.453  0.00  0.00    +0.011 A 
ATOM     18  C   UNL     1     -27.068   9.083   6.861  0.00  0.00    +0.020 A 
ATOM     19  C   UNL     1     -27.796   8.047   7.400  0.00  0.00    +0.111 A 
ATOM     20  N   UNL     1     -29.138   8.074   7.541  0.00  0.00    -0.253 NA
ATOM     21  C   UNL     1     -29.838   9.160   7.148  0.00  0.00    +0.097 A 
ENDBRANCH   9  12
ENDBRANCH   7   9
ENDBRANCH   5   7
BRANCH   1  22
ATOM     22  C   UNL     1     -35.907   3.900   8.793  0.00  0.00    +0.063 C 
BRANCH  22  29
ATOM     23  O   UNL     1     -33.390   4.220  10.226  0.00  0.00    -0.287 OA
ATOM     24  C   UNL     1     -33.811   3.074  10.097  0.00  0.00    +0.196 A 
ATOM     25  C   UNL     1     -33.000   1.920  10.594  0.00  0.00    +0.038 A 
ATOM     26  C   UNL     1     -33.566   0.702  10.556  0.00  0.00    +0.116 A 
ATOM     27  O   UNL     1     -34.836   0.477  10.062  0.00  0.00    -0.429 OA
ATOM     28  C   UNL     1     -35.542   1.508   9.488  0.00  0.00    +0.292 A 
ATOM     29  C   UNL     1     -35.125   2.784   9.463  0.00  0.00    +0.087 A 
ATOM     30  C   UNL     1     -32.887  -0.565  11.008  0.00  0.00    +0.075 C 
ATOM     31  C   UNL     1     -31.964  -1.105   9.916  0.00  0.00    +0.008 C 
ATOM     32  C   UNL     1     -30.470  -1.006  10.224  0.00  0.00    +0.000 C 
ATOM     33  C   UNL     1     -29.959   0.271  10.891  0.00  0.00    +0.000 C 
ATOM     34  C   UNL     1     -30.468   1.590  10.302  0.00  0.00    +0.005 C 
ATOM     35  C   UNL     1     -31.616   2.223  11.109  0.00  0.00    +0.042 C 
BRANCH  28  36
ATOM     36  O   UNL     1     -36.750   1.154   8.926  0.00  0.00    -0.480 OA
ATOM     37  H   UNL     1     -36.998   1.917   8.373  0.00  0.00    +0.295 HD
ENDBRANCH  28  36
ENDBRANCH  22  29
BRANCH  22  38
ATOM     38  C   UNL     1     -36.501   5.004   9.663  0.00  0.00    +0.001 C 
ATOM     39  C   UNL     1     -37.988   5.047   9.939  0.00  0.00    +0.005 C 
ATOM     40  C   UNL     1     -37.025   4.812  11.069  0.00  0.00    +0.005 C 
ENDBRANCH  22  38
ENDBRANCH   1  22
TORSDOF 7
ENDMDL
MODEL 2
REMARK VINA RESULT:   -11.672      4.974      8.865
REMARK INTER + INTRA:         -17.013
REMARK INTER:                 -15.778
REMARK INTRA:                  -1.236
REMARK UNBOUND:                -0.906
REMARK  Name = CHEMBL16349
REMARK  7 active torsions:
REMARK  status: ('A' for Active; 'I' for Inactive)
REMARK    1  A    between atoms: C_6  and  O_7
REMARK    2  A    between atoms: C_8  and  C_9
REMARK    3  A    between atoms: C_9  and  C_10
REMARK    4  A    between atoms: C_9  and  C_30
REMARK    5  A    between atoms: C_14  and  N_15
REMARK    6  A    between atoms: N_15  and  S_16
REMARK    7  A    between atoms: S_16  and  C_19
REMARK                            x       y       z     vdW  Elec       q    Type
REMARK                         _______ _______ _______ _____ _____    ______ ____
ROOT
ATOM      1  C   UNL     1     -30.889  -0.456  12.161  0.00  0.00    -0.038 A 
ATOM      2  C   UNL     1     -30.772  -1.148  10.948  0.00  0.00    +0.004 A 
ATOM      3  C   UNL     1     -31.655  -0.901   9.896  0.00  0.00    +0.002 A 
ATOM      4  C   UNL     1     -32.666   0.047  10.041  0.00  0.00    +0.024 A 
ATOM      5  C   UNL     1     -32.795   0.753  11.239  0.00  0.00    +0.048 A 
ATOM      6  C   UNL     1     -31.930   0.481  12.299  0.00  0.00    +0.028 A 
ENDROOT
BRANCH   5   7
ATOM      7  N   UNL     1     -33.838   1.715  11.340  0.00  0.00    -0.216 N 
ATOM      8  H   UNL     1     -34.711   1.439  11.781  0.00  0.00    +0.174 HD
BRANCH   7   9
ATOM      9  S   UNL     1     -34.068   2.883  10.140  0.00  0.00    +0.074 S 
ATOM     10  O   UNL     1     -33.082   3.905  10.447  0.00  0.00    -0.150 OA
ATOM     11  O   UNL     1     -34.052   2.251   8.840  0.00  0.00    -0.150 OA
BRANCH   9  12
ATOM     12  C   UNL     1     -35.655   3.578  10.534  0.00  0.00    +0.134 A 
ATOM     13  C   UNL     1     -35.715   4.980  10.671  0.00  0.00    +0.031 A 
ATOM     14  C   UNL     1     -36.915   5.599  10.992  0.00  0.00    +0.003 A 
ATOM     15  C   UNL     1     -38.052   4.819  11.170  0.00  0.00    +0.010 A 
ATOM     16  C   UNL     1     -37.996   3.423  11.021  0.00  0.00    +0.002 A 
ATOM     17  C   UNL     1     -39.153   2.652  11.211  0.00  0.00    +0.011 A 
ATOM     18  C   UNL     1     -39.106   1.274  11.066  0.00  0.00    +0.020 A 
ATOM     19  C   UNL     1     -37.897   0.709  10.732  0.00  0.00    +0.111 A 
ATOM     20  N   UNL     1     -36.766   1.423  10.548  0.00  0.00    -0.253 NA
ATOM     21  C   UNL     1     -36.785   2.767  10.686  0.00  0.00    +0.097 A 
ENDBRANCH   9  12
ENDBRANCH   7   9
ENDBRANCH   5   7
BRANCH   1  22
ATOM     22  C   UNL     1     -29.944  -0.702  13.344  0.00  0.00    +0.063 C 
BRANCH  22  29
ATOM     23  O   UNL     1     -29.148   2.098  13.481  0.00  0.00    -0.287 OA
ATOM     24  C   UNL     1     -28.288   1.295  13.129  0.00  0.00    +0.196 A 
ATOM     25  C   UNL     1     -26.935   1.782  12.719  0.00  0.00    +0.038 A 
ATOM     26  C   UNL     1     -25.990   0.856  12.477  0.00  0.00    +0.116 A 
ATOM     27  O   UNL     1     -26.226  -0.501  12.568  0.00  0.00    -0.429 OA
ATOM     28  C   UNL     1     -27.496  -0.964  12.821  0.00  0.00    +0.292 A 
ATOM     29  C   UNL     1     -28.543  -0.171  13.102  0.00  0.00    +0.087 A 
ATOM     30  C   UNL     1     -24.581   1.173  12.048  0.00  0.00    +0.075 C 
ATOM     31  C   UNL     1     -24.520   1.437  10.543  0.00  0.00    +0.008 C 
ATOM     32  C   UNL     1     -24.235   2.887  10.152  0.00  0.00    +0.000 C 
ATOM     33  C   UNL     1     -24.929   3.993  10.947  0.00  0.00    +0.000 C 
ATOM     34  C   UNL     1     -26.426   3.798  11.209  0.00  0.00    +0.005 C 
ATOM     35  C   UNL     1     -26.740   3.273  12.622  0.00  0.00    +0.042 C 
BRANCH  28  36
ATOM     36  O   UNL     1     -27.644  -2.333  12.781  0.00  0.00    -0.480 OA
ATOM     37  H   UNL     1     -27.668  -2.607  13.716  0.00  0.00    +0.295 HD
ENDBRANCH  28  36
ENDBRANCH  22  29
BRANCH  22  38
ATOM     38  C   UNL     1     -30.622  -0.400  14.678  0.00  0.00    +0.001 C 
ATOM     39  C   UNL     1     -30.756  -1.477  15.733  0.00  0.00    +0.005 C 
ATOM     40  C   UNL     1     -29.907  -0.268  16.004  0.00  0.00    +0.005 C 
ENDBRANCH  22  38
ENDBRANCH   1  22
TORSDOF 7
ENDMDL
MODEL 3
REMARK VINA RESULT:   -11.663      1.340      2.367
REMARK INTER + INTRA:         -17.001
REMARK INTER:                 -16.803
REMARK INTRA:                  -0.198
REMARK UNBOUND:                -0.906
REMARK  Name = CHEMBL16349
REMARK  7 active torsions:
REMARK  status: ('A' for Active; 'I' for Inactive)
REMARK    1  A    between atoms: C_6  and  O_7
REMARK    2  A    between atoms: C_8  and  C_9
REMARK    3  A    between atoms: C_9  and  C_10
REMARK    4  A    between atoms: C_9  and  C_30
REMARK    5  A    between atoms: C_14  and  N_15
REMARK    6  A    between atoms: N_15  and  S_16
REMARK    7  A    between atoms: S_16  and  C_19
REMARK                            x       y       z     vdW  Elec       q    Type
REMARK                         _______ _______ _______ _____ _____    ______ ____
ROOT
ATOM      1  C   UNL     1     -34.037   4.937   7.950  0.00  0.00    -0.038 A 
ATOM      2  C   UNL     1     -34.695   4.439   6.817  0.00  0.00    +0.004 A 
ATOM      3  C   UNL     1     -34.603   5.098   5.591  0.00  0.00    +0.002 A 
ATOM      4  C   UNL     1     -33.848   6.263   5.478  0.00  0.00    +0.024 A 
ATOM      5  C   UNL     1     -33.179   6.771   6.593  0.00  0.00    +0.048 A 
ATOM      6  C   UNL     1     -33.297   6.128   7.824  0.00  0.00    +0.028 A 
ENDROOT
BRANCH   5   7
ATOM      7  N   UNL     1     -32.414   7.960   6.430  0.00  0.00    -0.216 N 
ATOM      8  H   UNL     1     -31.914   8.099   5.555  0.00  0.00    +0.174 HD
BRANCH   7   9
ATOM      9  S   UNL     1     -31.624   8.677   7.741  0.00  0.00    +0.074 S 
ATOM     10  O   UNL     1     -32.662   9.449   8.401  0.00  0.00    -0.150 OA
ATOM     11  O   UNL     1     -30.911   7.665   8.487  0.00  0.00    -0.150 OA
BRANCH   9  12
ATOM     12  C   UNL     1     -30.529   9.850   6.977  0.00  0.00    +0.134 A 
ATOM     13  C   UNL     1     -31.094  11.081   6.587  0.00  0.00    +0.031 A 
ATOM     14  C   UNL     1     -30.310  12.045   5.971  0.00  0.00    +0.003 A 
ATOM     15  C   UNL     1     -28.963  11.780   5.750  0.00  0.00    +0.010 A 
ATOM     16  C   UNL     1     -28.395  10.559   6.150  0.00  0.00    +0.002 A 
ATOM     17  C   UNL     1     -27.036  10.309   5.913  0.00  0.00    +0.011 A 
ATOM     18  C   UNL     1     -26.468   9.105   6.305  0.00  0.00    +0.020 A 
ATOM     19  C   UNL     1     -27.284   8.188   6.926  0.00  0.00    +0.111 A 
ATOM     20  N   UNL     1     -28.596   8.399   7.163  0.00  0.00    -0.253 NA
ATOM     21  C   UNL     1     -29.173   9.562   6.788  0.00  0.00    +0.097 A 
ENDBRANCH   9  12
ENDBRANCH   7   9
ENDBRANCH   5   7
BRANCH   1  22
ATOM     22  C   UNL     1     -34.117   4.248   9.318  0.00  0.00    +0.063 C 
BRANCH  22  29
ATOM     23  O   UNL     1     -34.368   1.350   9.491  0.00  0.00    -0.287 OA
ATOM     24  C   UNL     1     -33.254   1.822   9.701  0.00  0.00    +0.196 A 
ATOM     25  C   UNL     1     -32.127   0.925  10.105  0.00  0.00    +0.038 A 
ATOM     26  C   UNL     1     -30.901   1.470  10.187  0.00  0.00    +0.116 A 
ATOM     27  O   UNL     1     -30.652   2.805   9.940  0.00  0.00    -0.429 OA
ATOM     28  C   UNL     1     -31.696   3.665   9.691  0.00  0.00    +0.292 A 
ATOM     29  C   UNL     1     -32.975   3.276   9.559  0.00  0.00    +0.087 A 
ATOM     30  C   UNL     1     -29.661   0.713  10.586  0.00  0.00    +0.075 C 
ATOM     31  C   UNL     1     -29.565   0.594  12.108  0.00  0.00    +0.008 C 
ATOM     32  C   UNL     1     -29.775  -0.816  12.660  0.00  0.00    +0.000 C 
ATOM     33  C   UNL     1     -30.879  -1.672  12.041  0.00  0.00    +0.000 C 
ATOM     34  C   UNL     1     -32.228  -0.980  11.826  0.00  0.00    +0.005 C 
ATOM     35  C   UNL     1     -32.460  -0.520  10.376  0.00  0.00    +0.042 C 
BRANCH  28  36
ATOM     36  O   UNL     1     -31.351   4.993   9.570  0.00  0.00    -0.480 OA
ATOM     37  H   UNL     1     -31.804   5.293   8.760  0.00  0.00    +0.295 HD
ENDBRANCH  28  36
ENDBRANCH  22  29
BRANCH  22  38
ATOM     38  C   UNL     1     -34.486   5.233  10.424  0.00  0.00    +0.001 C 
ATOM     39  C   UNL     1     -35.801   5.103  11.161  0.00  0.00    +0.005 C 
ATOM     40  C   UNL     1     -34.508   4.910  11.901  0.00  0.00    +0.005 C 
ENDBRANCH  22  38
ENDBRANCH   1  22
TORSDOF 7
ENDMDL
