MODEL 1
REMARK VINA RESULT:   -12.431      0.000      0.000
REMARK INTER + INTRA:         -18.041
REMARK INTER:                 -17.154
REMARK INTRA:                  -0.887
REMARK UNBOUND:                -0.887
REMARK  Name = CHEMBL16349
REMARK  7 active torsions:
REMARK  status: ('A' for Active; 'I' for Inactive)
REMARK    1  A    between atoms: C_6  and  O_7
REMARK    2  A    between atoms: C_8  and  C_9
REMARK    3  A    between atoms: C_9  and  C_10
REMARK    4  A    between atoms: C_9  and  C_30
REMARK    5  A    between atoms: C_14  and  N_15
REMARK    6  A    between atoms: N_15  and  S_16
REMARK    7  A    between atoms: S_16  and  C_19
REMARK                            x       y       z     vdW  Elec       q    Type
REMARK                         _______ _______ _______ _____ _____    ______ ____
ROOT
ATOM      1  C   UNL     1     -34.564   4.948   7.231  0.00  0.00    -0.038 A 
ATOM      2  C   UNL     1     -34.540   4.207   6.040  0.00  0.00    +0.004 A 
ATOM      3  C   UNL     1     -33.917   4.710   4.898  0.00  0.00    +0.002 A 
ATOM      4  C   UNL     1     -33.303   5.961   4.931  0.00  0.00    +0.024 A 
ATOM      5  C   UNL     1     -33.309   6.710   6.108  0.00  0.00    +0.048 A 
ATOM      6  C   UNL     1     -33.959   6.219   7.239  0.00  0.00    +0.028 A 
ENDROOT
BRANCH   5   7
ATOM      7  N   UNL     1     -32.665   7.979   6.096  0.00  0.00    -0.216 N 
ATOM      8  H   UNL     1     -32.076   8.217   5.302  0.00  0.00    +0.174 HD
BRANCH   7   9
ATOM      9  S   UNL     1     -32.132   8.701   7.529  0.00  0.00    +0.074 S 
ATOM     10  O   UNL     1     -33.219   9.587   7.905  0.00  0.00    -0.150 OA
ATOM     11  O   UNL     1     -31.699   7.677   8.453  0.00  0.00    -0.150 OA
BRANCH   9  12
ATOM     12  C   UNL     1     -30.792   9.742   6.997  0.00  0.00    +0.134 A 
ATOM     13  C   UNL     1     -31.136  11.029   6.539  0.00  0.00    +0.031 A 
ATOM     14  C   UNL     1     -30.149  11.897   6.093  0.00  0.00    +0.003 A 
ATOM     15  C   UNL     1     -28.823  11.480   6.111  0.00  0.00    +0.010 A 
ATOM     16  C   UNL     1     -28.478  10.202   6.580  0.00  0.00    +0.002 A 
ATOM     17  C   UNL     1     -27.135   9.797   6.585  0.00  0.00    +0.011 A 
ATOM     18  C   UNL     1     -26.786   8.537   7.046  0.00  0.00    +0.020 A 
ATOM     19  C   UNL     1     -27.799   7.719   7.493  0.00  0.00    +0.111 A 
ATOM     20  N   UNL     1     -29.100   8.078   7.496  0.00  0.00    -0.253 NA
ATOM     21  C   UNL     1     -29.466   9.300   7.048  0.00  0.00    +0.097 A 
ENDBRANCH   9  12
ENDBRANCH   7   9
ENDBRANCH   5   7
BRANCH   1  22
ATOM     22  C   UNL     1     -35.244   4.435   8.506  0.00  0.00    +0.063 C 
BRANCH  22  29
ATOM     23  O   UNL     1     -32.774   4.624  10.041  0.00  0.00    -0.287 OA
ATOM     24  C   UNL     1     -33.212   3.495   9.834  0.00  0.00    +0.196 A 
ATOM     25  C   UNL     1     -32.440   2.299  10.294  0.00  0.00    +0.038 A 
ATOM     26  C   UNL     1     -33.028   1.097  10.169  0.00  0.00    +0.116 A 
ATOM     27  O   UNL     1     -34.283   0.926   9.619  0.00  0.00    -0.429 OA
ATOM     28  C   UNL     1     -34.949   2.001   9.079  0.00  0.00    +0.292 A 
ATOM     29  C   UNL     1     -34.508   3.268   9.140  0.00  0.00    +0.087 A 
ATOM     30  C   UNL     1     -32.390  -0.207  10.573  0.00  0.00    +0.075 C 
ATOM     31  C   UNL     1     -31.439  -0.705   9.484  0.00  0.00    +0.008 C 
ATOM     32  C   UNL     1     -29.955  -0.654   9.848  0.00  0.00    +0.000 C 
ATOM     33  C   UNL     1     -29.444   0.573  10.602  0.00  0.00    +0.000 C 
ATOM     34  C   UNL     1     -29.907   1.933  10.070  0.00  0.00    +0.005 C 
ATOM     35  C   UNL     1     -31.070   2.544  10.872  0.00  0.00    +0.042 C 
BRANCH  28  36
ATOM     36  O   UNL     1     -36.143   1.704   8.458  0.00  0.00    -0.480 OA
ATOM     37  H   UNL     1     -35.896   1.133   7.708  0.00  0.00    +0.295 HD
ENDBRANCH  28  36
ENDBRANCH  22  29
BRANCH  22  38
ATOM     38  C   UNL     1     -35.704   5.583   9.399  0.00  0.00    +0.001 C 
ATOM     39  C   UNL     1     -37.178   5.831   9.635  0.00  0.00    +0.005 C 
ATOM     40  C   UNL     1     -36.297   5.423  10.782  0.00  0.00    +0.005 C 
ENDBRANCH  22  38
ENDBRANCH   1  22
TORSDOF 7
ENDMDL
MODEL 2
REMARK VINA RESULT:   -12.165      4.954      8.597
REMARK INTER + INTRA:         -17.675
REMARK INTER:                 -16.346
REMARK INTRA:                  -1.329
REMARK UNBOUND:                -0.887
REMARK  Name = CHEMBL16349
REMARK  7 active torsions:
REMARK  status: ('A' for Active; 'I' for Inactive)
REMARK    1  A    between atoms: C_6  and  O_7
REMARK    2  A    between atoms: C_8  and  C_9
REMARK    3  A    between atoms: C_9  and  C_10
REMARK    4  A    between atoms: C_9  and  C_30
REMARK    5  A    between atoms: C_14  and  N_15
REMARK    6  A    between atoms: N_15  and  S_16
REMARK    7  A    between atoms: S_16  and  C_19
REMARK                            x       y       z     vdW  Elec       q    Type
REMARK                         _______ _______ _______ _____ _____    ______ ____
ROOT
ATOM      1  C   UNL     1     -29.728   0.242  12.334  0.00  0.00    -0.038 A 
ATOM      2  C   UNL     1     -29.357   1.345  13.116  0.00  0.00    +0.004 A 
ATOM      3  C   UNL     1     -28.015   1.602  13.398  0.00  0.00    +0.002 A 
ATOM      4  C   UNL     1     -27.023   0.761  12.897  0.00  0.00    +0.024 A 
ATOM      5  C   UNL     1     -27.371  -0.338  12.110  0.00  0.00    +0.048 A 
ATOM      6  C   UNL     1     -28.715  -0.610  11.856  0.00  0.00    +0.028 A 
ENDROOT
BRANCH   5   7
ATOM      7  N   UNL     1     -26.324  -1.165  11.616  0.00  0.00    -0.216 N 
ATOM      8  H   UNL     1     -25.663  -1.559  12.280  0.00  0.00    +0.174 HD
BRANCH   7   9
ATOM      9  S   UNL     1     -25.622  -0.876  10.106  0.00  0.00    +0.074 S 
ATOM     10  O   UNL     1     -24.673  -1.964   9.942  0.00  0.00    -0.150 OA
ATOM     11  O   UNL     1     -26.660  -0.687   9.118  0.00  0.00    -0.150 OA
BRANCH   9  12
ATOM     12  C   UNL     1     -24.662   0.597  10.368  0.00  0.00    +0.134 A 
ATOM     13  C   UNL     1     -23.359   0.421  10.876  0.00  0.00    +0.031 A 
ATOM     14  C   UNL     1     -22.551   1.521  11.121  0.00  0.00    +0.003 A 
ATOM     15  C   UNL     1     -23.043   2.794  10.855  0.00  0.00    +0.010 A 
ATOM     16  C   UNL     1     -24.337   2.970  10.336  0.00  0.00    +0.002 A 
ATOM     17  C   UNL     1     -24.817   4.263  10.079  0.00  0.00    +0.011 A 
ATOM     18  C   UNL     1     -26.093   4.446   9.567  0.00  0.00    +0.020 A 
ATOM     19  C   UNL     1     -26.850   3.322   9.325  0.00  0.00    +0.111 A 
ATOM     20  N   UNL     1     -26.417   2.066   9.567  0.00  0.00    -0.253 NA
ATOM     21  C   UNL     1     -25.179   1.862  10.069  0.00  0.00    +0.097 A 
ENDBRANCH   9  12
ENDBRANCH   7   9
ENDBRANCH   5   7
BRANCH   1  22
ATOM     22  C   UNL     1     -31.192  -0.080  12.007  0.00  0.00    +0.063 C 
BRANCH  22  29
ATOM     23  O   UNL     1     -33.078   1.926  12.960  0.00  0.00    -0.287 OA
ATOM     24  C   UNL     1     -32.860   1.901  11.752  0.00  0.00    +0.196 A 
ATOM     25  C   UNL     1     -33.610   2.818  10.839  0.00  0.00    +0.038 A 
ATOM     26  C   UNL     1     -33.236   2.850   9.548  0.00  0.00    +0.116 A 
ATOM     27  O   UNL     1     -32.221   2.065   9.039  0.00  0.00    -0.429 OA
ATOM     28  C   UNL     1     -31.609   1.129   9.839  0.00  0.00    +0.292 A 
ATOM     29  C   UNL     1     -31.854   0.984  11.151  0.00  0.00    +0.087 A 
ATOM     30  C   UNL     1     -33.889   3.709   8.496  0.00  0.00    +0.075 C 
ATOM     31  C   UNL     1     -35.165   3.049   7.973  0.00  0.00    +0.008 C 
ATOM     32  C   UNL     1     -36.464   3.747   8.372  0.00  0.00    +0.000 C 
ATOM     33  C   UNL     1     -36.583   4.279   9.800  0.00  0.00    +0.000 C 
ATOM     34  C   UNL     1     -36.127   3.330  10.913  0.00  0.00    +0.005 C 
ATOM     35  C   UNL     1     -34.717   3.641  11.447  0.00  0.00    +0.042 C 
BRANCH  28  36
ATOM     36  O   UNL     1     -30.689   0.322   9.205  0.00  0.00    -0.480 OA
ATOM     37  H   UNL     1     -30.813  -0.557   9.605  0.00  0.00    +0.295 HD
ENDBRANCH  28  36
ENDBRANCH  22  29
BRANCH  22  38
ATOM     38  C   UNL     1     -31.373  -1.546  11.624  0.00  0.00    +0.001 C 
ATOM     39  C   UNL     1     -32.048  -2.511  12.574  0.00  0.00    +0.005 C 
ATOM     40  C   UNL     1     -32.691  -2.190  11.255  0.00  0.00    +0.005 C 
ENDBRANCH  22  38
ENDBRANCH   1  22
TORSDOF 7
ENDMDL
MODEL 3
REMARK VINA RESULT:   -12.140      1.105      2.149
REMARK INTER + INTRA:         -17.640
REMARK INTER:                 -17.478
REMARK INTRA:                  -0.161
REMARK UNBOUND:                -0.887
REMARK  Name = CHEMBL16349
REMARK  7 active torsions:
REMARK  status: ('A' for Active; 'I' for Inactive)
REMARK    1  A    between atoms: C_6  and  O_7
REMARK    2  A    between atoms: C_8  and  C_9
REMARK    3  A    between atoms: C_9  and  C_10
REMARK    4  A    between atoms: C_9  and  C_30
REMARK    5  A    between atoms: C_14  and  N_15
REMARK    6  A    between atoms: N_15  and  S_16
REMARK    7  A    between atoms: S_16  and  C_19
REMARK                            x       y       z     vdW  Elec       q    Type
REMARK                         _______ _______ _______ _____ _____    ______ ____
ROOT
ATOM      1  C   UNL     1     -33.870   4.942   7.607  0.00  0.00    -0.038 A 
ATOM      2  C   UNL     1     -34.325   4.345   6.423  0.00  0.00    +0.004 A 
ATOM      3  C   UNL     1     -34.182   4.992   5.195  0.00  0.00    +0.002 A 
ATOM      4  C   UNL     1     -33.578   6.245   5.133  0.00  0.00    +0.024 A 
ATOM      5  C   UNL     1     -33.111   6.854   6.298  0.00  0.00    +0.048 A 
ATOM      6  C   UNL     1     -33.283   6.219   7.528  0.00  0.00    +0.028 A 
ENDROOT
BRANCH   5   7
ATOM      7  N   UNL     1     -32.495   8.132   6.186  0.00  0.00    -0.216 N 
ATOM      8  H   UNL     1     -31.916   8.321   5.372  0.00  0.00    +0.174 HD
BRANCH   7   9
ATOM      9  S   UNL     1     -31.971   8.972   7.555  0.00  0.00    +0.074 S 
ATOM     10  O   UNL     1     -33.084   9.845   7.884  0.00  0.00    -0.150 OA
ATOM     11  O   UNL     1     -31.491   8.033   8.544  0.00  0.00    -0.150 OA
BRANCH   9  12
ATOM     12  C   UNL     1     -30.675  10.018   6.932  0.00  0.00    +0.134 A 
ATOM     13  C   UNL     1     -31.057  11.299   6.486  0.00  0.00    +0.031 A 
ATOM     14  C   UNL     1     -30.107  12.170   5.972  0.00  0.00    +0.003 A 
ATOM     15  C   UNL     1     -28.780  11.763   5.909  0.00  0.00    +0.010 A 
ATOM     16  C   UNL     1     -28.396  10.490   6.365  0.00  0.00    +0.002 A 
ATOM     17  C   UNL     1     -27.052  10.096   6.288  0.00  0.00    +0.011 A 
ATOM     18  C   UNL     1     -26.665   8.841   6.736  0.00  0.00    +0.020 A 
ATOM     19  C   UNL     1     -27.642   8.020   7.252  0.00  0.00    +0.111 A 
ATOM     20  N   UNL     1     -28.943   8.371   7.335  0.00  0.00    -0.253 NA
ATOM     21  C   UNL     1     -29.345   9.586   6.902  0.00  0.00    +0.097 A 
ENDBRANCH   9  12
ENDBRANCH   7   9
ENDBRANCH   5   7
BRANCH   1  22
ATOM     22  C   UNL     1     -34.014   4.269   8.977  0.00  0.00    +0.063 C 
BRANCH  22  29
ATOM     23  O   UNL     1     -34.180   1.388   9.378  0.00  0.00    -0.287 OA
ATOM     24  C   UNL     1     -33.085   1.910   9.567  0.00  0.00    +0.196 A 
ATOM     25  C   UNL     1     -31.939   1.085  10.060  0.00  0.00    +0.038 A 
ATOM     26  C   UNL     1     -30.732   1.672  10.116  0.00  0.00    +0.116 A 
ATOM     27  O   UNL     1     -30.519   2.991   9.767  0.00  0.00    -0.429 OA
ATOM     28  C   UNL     1     -31.584   3.794   9.434  0.00  0.00    +0.292 A 
ATOM     29  C   UNL     1     -32.848   3.356   9.313  0.00  0.00    +0.087 A 
ATOM     30  C   UNL     1     -29.477   0.989  10.595  0.00  0.00    +0.075 C 
ATOM     31  C   UNL     1     -29.405   0.995  12.122  0.00  0.00    +0.008 C 
ATOM     32  C   UNL     1     -29.581  -0.372  12.783  0.00  0.00    +0.000 C 
ATOM     33  C   UNL     1     -30.648  -1.309  12.217  0.00  0.00    +0.000 C 
ATOM     34  C   UNL     1     -32.014  -0.680  11.926  0.00  0.00    +0.005 C 
ATOM     35  C   UNL     1     -32.233  -0.344  10.440  0.00  0.00    +0.042 C 
BRANCH  28  36
ATOM     36  O   UNL     1     -31.277   5.119   9.211  0.00  0.00    -0.480 OA
ATOM     37  H   UNL     1     -31.824   5.610   9.851  0.00  0.00    +0.295 HD
ENDBRANCH  28  36
ENDBRANCH  22  29
BRANCH  22  38
ATOM     38  C   UNL     1     -34.505   5.250  10.038  0.00  0.00    +0.001 C 
ATOM     39  C   UNL     1     -35.748   4.949  10.846  0.00  0.00    +0.005 C 
ATOM     40  C   UNL     1     -34.413   5.031  11.531  0.00  0.00    +0.005 C 
ENDBRANCH  22  38
ENDBRANCH   1  22
TORSDOF 7
ENDMDL
