MODEL 1
REMARK VINA RESULT:   -11.980      0.000      0.000
REMARK INTER + INTRA:         -17.019
REMARK INTER:                 -16.182
REMARK INTRA:                  -0.837
REMARK UNBOUND:                -0.837
REMARK  Name = CHEMBL16965
REMARK  6 active torsions:
REMARK  status: ('A' for Active; 'I' for Inactive)
REMARK    1  A    between atoms: N_5  and  C_6
REMARK    2  A    between atoms: C_6  and  C_7
REMARK    3  A    between atoms: C_11  and  C_12
REMARK    4  A    between atoms: C_12  and  N_13
REMARK    5  A    between atoms: N_13  and  S_14
REMARK    6  A    between atoms: S_14  and  C_17
REMARK                            x       y       z     vdW  Elec       q    Type
REMARK                         _______ _______ _______ _____ _____    ______ ____
ROOT
ATOM      1  C   UNL     1      22.860   7.271 -12.883  0.00  0.00    -0.030 A 
ATOM      2  C   UNL     1      23.465   6.052 -13.214  0.00  0.00    +0.005 A 
ATOM      3  C   UNL     1      24.146   5.906 -14.423  0.00  0.00    +0.001 A 
ATOM      4  C   UNL     1      24.222   6.974 -15.318  0.00  0.00    +0.005 A 
ATOM      5  C   UNL     1      23.606   8.195 -15.017  0.00  0.00    -0.032 A 
ATOM      6  C   UNL     1      22.931   8.335 -13.795  0.00  0.00    +0.010 A 
ENDROOT
BRANCH   1   7
ATOM      7  C   UNL     1      22.111   7.434 -11.579  0.00  0.00    +0.139 C 
BRANCH   7  12
ATOM      8  N   UNL     1      17.671   3.749 -11.546  0.00  0.00    -0.343 N 
ATOM      9  C   UNL     1      18.661   4.491 -10.888  0.00  0.00    +0.129 A 
ATOM     10  N   UNL     1      19.215   5.465 -11.619  0.00  0.00    -0.199 NA
ATOM     11  C   UNL     1      20.155   6.209 -11.029  0.00  0.00    +0.218 A 
ATOM     12  N   UNL     1      20.701   7.215 -11.815  0.00  0.00    -0.309 N 
ATOM     13  N   UNL     1      20.577   6.034  -9.772  0.00  0.00    -0.214 NA
ATOM     14  C   UNL     1      20.026   5.047  -9.057  0.00  0.00    +0.078 A 
ATOM     15  C   UNL     1      20.450   4.842  -7.749  0.00  0.00    +0.028 A 
ATOM     16  C   UNL     1      19.921   3.822  -6.951  0.00  0.00    +0.002 A 
ATOM     17  C   UNL     1      18.946   2.978  -7.468  0.00  0.00    +0.001 A 
ATOM     18  C   UNL     1      18.505   3.166  -8.774  0.00  0.00    +0.013 A 
ATOM     19  C   UNL     1      19.038   4.208  -9.572  0.00  0.00    +0.040 A 
ATOM     20  H   UNL     1      17.549   4.173 -12.463  0.00  0.00    +0.144 HD
ATOM     21  H   UNL     1      16.804   3.758 -11.018  0.00  0.00    +0.144 HD
ATOM     22  H   UNL     1      20.462   6.989 -12.775  0.00  0.00    +0.149 HD
ENDBRANCH   7  12
ENDBRANCH   1   7
BRANCH   5  23
ATOM     23  C   UNL     1      23.699   9.363 -15.969  0.00  0.00    +0.141 C 
BRANCH  23  24
ATOM     24  N   UNL     1      22.419   9.542 -16.686  0.00  0.00    -0.186 NA
ATOM     25  H   UNL     1      21.747   8.843 -16.368  0.00  0.00    +0.148 HD
BRANCH  24  26
ATOM     26  S   UNL     1      21.747  11.082 -16.493  0.00  0.00    +0.059 S 
ATOM     27  O   UNL     1      20.411  11.045 -17.048  0.00  0.00    -0.153 OA
ATOM     28  O   UNL     1      22.723  12.032 -16.979  0.00  0.00    -0.153 OA
BRANCH  26  29
ATOM     29  C   UNL     1      21.625  11.201 -14.719  0.00  0.00    +0.113 A 
ATOM     30  C   UNL     1      20.465  10.665 -14.135  0.00  0.00    +0.029 A 
ATOM     31  C   UNL     1      20.292  10.710 -12.758  0.00  0.00    +0.003 A 
ATOM     32  C   UNL     1      21.273  11.289 -11.960  0.00  0.00    +0.008 A 
ATOM     33  C   UNL     1      22.440  11.833 -12.521  0.00  0.00    -0.016 A 
ATOM     34  C   UNL     1      23.404  12.400 -11.671  0.00  0.00    +0.008 A 
ATOM     35  C   UNL     1      24.578  12.953 -12.177  0.00  0.00    +0.001 A 
ATOM     36  C   UNL     1      24.801  12.948 -13.545  0.00  0.00    +0.001 A 
ATOM     37  C   UNL     1      23.852  12.387 -14.405  0.00  0.00    +0.010 A 
ATOM     38  C   UNL     1      22.644  11.808 -13.926  0.00  0.00    +0.008 A 
ENDBRANCH  26  29
ENDBRANCH  24  26
ENDBRANCH  23  24
ENDBRANCH   5  23
TORSDOF 6
ENDMDL
MODEL 2
REMARK VINA RESULT:   -11.116      3.950      8.656
REMARK INTER + INTRA:         -15.852
REMARK INTER:                 -15.153
REMARK INTRA:                  -0.699
REMARK UNBOUND:                -0.837
REMARK  Name = CHEMBL16965
REMARK  6 active torsions:
REMARK  status: ('A' for Active; 'I' for Inactive)
REMARK    1  A    between atoms: N_5  and  C_6
REMARK    2  A    between atoms: C_6  and  C_7
REMARK    3  A    between atoms: C_11  and  C_12
REMARK    4  A    between atoms: C_12  and  N_13
REMARK    5  A    between atoms: N_13  and  S_14
REMARK    6  A    between atoms: S_14  and  C_17
REMARK                            x       y       z     vdW  Elec       q    Type
REMARK                         _______ _______ _______ _____ _____    ______ ____
ROOT
ATOM      1  C   UNL     1      21.183   3.987 -12.247  0.00  0.00    -0.030 A 
ATOM      2  C   UNL     1      22.057   2.974 -12.661  0.00  0.00    +0.005 A 
ATOM      3  C   UNL     1      21.573   1.698 -12.950  0.00  0.00    +0.001 A 
ATOM      4  C   UNL     1      20.212   1.418 -12.819  0.00  0.00    +0.005 A 
ATOM      5  C   UNL     1      19.324   2.410 -12.386  0.00  0.00    -0.032 A 
ATOM      6  C   UNL     1      19.818   3.693 -12.106  0.00  0.00    +0.010 A 
ENDROOT
BRANCH   1   7
ATOM      7  C   UNL     1      21.702   5.370 -11.922  0.00  0.00    +0.139 C 
BRANCH   7  12
ATOM      8  N   UNL     1      24.036   8.770 -15.959  0.00  0.00    -0.343 N 
ATOM      9  C   UNL     1      23.552   8.550 -14.662  0.00  0.00    +0.129 A 
ATOM     10  N   UNL     1      23.409   7.264 -14.323  0.00  0.00    -0.199 NA
ATOM     11  C   UNL     1      22.964   7.005 -13.091  0.00  0.00    +0.218 A 
ATOM     12  N   UNL     1      22.836   5.660 -12.772  0.00  0.00    -0.309 N 
ATOM     13  N   UNL     1      22.646   7.942 -12.191  0.00  0.00    -0.214 NA
ATOM     14  C   UNL     1      22.779   9.224 -12.547  0.00  0.00    +0.078 A 
ATOM     15  C   UNL     1      22.451  10.218 -11.631  0.00  0.00    +0.028 A 
ATOM     16  C   UNL     1      22.558  11.577 -11.944  0.00  0.00    +0.002 A 
ATOM     17  C   UNL     1      22.999  11.962 -13.205  0.00  0.00    +0.001 A 
ATOM     18  C   UNL     1      23.334  10.985 -14.137  0.00  0.00    +0.013 A 
ATOM     19  C   UNL     1      23.233   9.610 -13.808  0.00  0.00    +0.040 A 
ATOM     20  H   UNL     1      24.232   7.854 -16.356  0.00  0.00    +0.144 HD
ATOM     21  H   UNL     1      24.868   9.349 -15.938  0.00  0.00    +0.144 HD
ATOM     22  H   UNL     1      22.846   5.155 -13.652  0.00  0.00    +0.149 HD
ENDBRANCH   7  12
ENDBRANCH   1   7
BRANCH   5  23
ATOM     23  C   UNL     1      17.846   2.123 -12.260  0.00  0.00    +0.141 C 
BRANCH  23  24
ATOM     24  N   UNL     1      17.529   1.663 -10.892  0.00  0.00    -0.186 NA
ATOM     25  H   UNL     1      18.389   1.395 -10.413  0.00  0.00    +0.148 HD
BRANCH  24  26
ATOM     26  S   UNL     1      16.715   2.818  -9.963  0.00  0.00    +0.059 S 
ATOM     27  O   UNL     1      15.497   2.205  -9.478  0.00  0.00    -0.153 OA
ATOM     28  O   UNL     1      16.671   4.033 -10.744  0.00  0.00    -0.153 OA
BRANCH  26  29
ATOM     29  C   UNL     1      17.833   3.027  -8.591  0.00  0.00    +0.113 A 
ATOM     30  C   UNL     1      17.777   2.048  -7.584  0.00  0.00    +0.029 A 
ATOM     31  C   UNL     1      18.618   2.132  -6.482  0.00  0.00    +0.003 A 
ATOM     32  C   UNL     1      19.516   3.189  -6.380  0.00  0.00    +0.008 A 
ATOM     33  C   UNL     1      19.589   4.180  -7.373  0.00  0.00    -0.016 A 
ATOM     34  C   UNL     1      20.518   5.224  -7.226  0.00  0.00    +0.008 A 
ATOM     35  C   UNL     1      20.630   6.231  -8.182  0.00  0.00    +0.001 A 
ATOM     36  C   UNL     1      19.808   6.208  -9.298  0.00  0.00    +0.001 A 
ATOM     37  C   UNL     1      18.879   5.175  -9.459  0.00  0.00    +0.010 A 
ATOM     38  C   UNL     1      18.738   4.127  -8.509  0.00  0.00    +0.008 A 
ENDBRANCH  26  29
ENDBRANCH  24  26
ENDBRANCH  23  24
ENDBRANCH   5  23
TORSDOF 6
ENDMDL
MODEL 3
REMARK VINA RESULT:   -10.851      4.183      8.890
REMARK INTER + INTRA:         -15.495
REMARK INTER:                 -13.674
REMARK INTRA:                  -1.821
REMARK UNBOUND:                -0.837
REMARK  Name = CHEMBL16965
REMARK  6 active torsions:
REMARK  status: ('A' for Active; 'I' for Inactive)
REMARK    1  A    between atoms: N_5  and  C_6
REMARK    2  A    between atoms: C_6  and  C_7
REMARK    3  A    between atoms: C_11  and  C_12
REMARK    4  A    between atoms: C_12  and  N_13
REMARK    5  A    between atoms: N_13  and  S_14
REMARK    6  A    between atoms: S_14  and  C_17
REMARK                            x       y       z     vdW  Elec       q    Type
REMARK                         _______ _______ _______ _____ _____    ______ ____
ROOT
ATOM      1  C   UNL     1      20.394   6.077 -10.937  0.00  0.00    -0.030 A 
ATOM      2  C   UNL     1      21.609   5.648 -10.388  0.00  0.00    +0.005 A 
ATOM      3  C   UNL     1      21.624   4.751  -9.320  0.00  0.00    +0.001 A 
ATOM      4  C   UNL     1      20.425   4.281  -8.782  0.00  0.00    +0.005 A 
ATOM      5  C   UNL     1      19.198   4.714  -9.301  0.00  0.00    -0.032 A 
ATOM      6  C   UNL     1      19.193   5.609 -10.381  0.00  0.00    +0.010 A 
ENDROOT
BRANCH   1   7
ATOM      7  C   UNL     1      20.369   7.057 -12.089  0.00  0.00    +0.139 C 
BRANCH   7  12
ATOM      8  N   UNL     1      24.208   9.649 -15.531  0.00  0.00    -0.343 N 
ATOM      9  C   UNL     1      23.531   9.530 -14.309  0.00  0.00    +0.129 A 
ATOM     10  N   UNL     1      22.903   8.363 -14.123  0.00  0.00    -0.199 NA
ATOM     11  C   UNL     1      22.255   8.198 -12.967  0.00  0.00    +0.218 A 
ATOM     12  N   UNL     1      21.622   6.973 -12.806  0.00  0.00    -0.309 N 
ATOM     13  N   UNL     1      22.190   9.120 -12.001  0.00  0.00    -0.214 NA
ATOM     14  C   UNL     1      22.809  10.287 -12.205  0.00  0.00    +0.078 A 
ATOM     15  C   UNL     1      22.753  11.265 -11.217  0.00  0.00    +0.028 A 
ATOM     16  C   UNL     1      23.371  12.510 -11.371  0.00  0.00    +0.002 A 
ATOM     17  C   UNL     1      24.062  12.796 -12.543  0.00  0.00    +0.001 A 
ATOM     18  C   UNL     1      24.133  11.833 -13.544  0.00  0.00    +0.013 A 
ATOM     19  C   UNL     1      23.514  10.569 -13.375  0.00  0.00    +0.040 A 
ATOM     20  H   UNL     1      24.111   8.755 -16.007  0.00  0.00    +0.144 HD
ATOM     21  H   UNL     1      25.184   9.882 -15.379  0.00  0.00    +0.144 HD
ATOM     22  H   UNL     1      21.554   6.563 -13.732  0.00  0.00    +0.149 HD
ENDBRANCH   7  12
ENDBRANCH   1   7
BRANCH   5  23
ATOM     23  C   UNL     1      17.896   4.197  -8.739  0.00  0.00    +0.141 C 
BRANCH  23  24
ATOM     24  N   UNL     1      16.893   4.059  -9.817  0.00  0.00    -0.186 NA
ATOM     25  H   UNL     1      17.067   4.759 -10.538  0.00  0.00    +0.148 HD
BRANCH  24  26
ATOM     26  S   UNL     1      16.873   2.524 -10.528  0.00  0.00    +0.059 S 
ATOM     27  O   UNL     1      15.491   2.184 -10.787  0.00  0.00    -0.153 OA
ATOM     28  O   UNL     1      17.704   1.670  -9.710  0.00  0.00    -0.153 OA
BRANCH  26  29
ATOM     29  C   UNL     1      17.685   2.840 -12.083  0.00  0.00    +0.113 A 
ATOM     30  C   UNL     1      16.911   3.464 -13.077  0.00  0.00    +0.029 A 
ATOM     31  C   UNL     1      17.466   3.752 -14.316  0.00  0.00    +0.003 A 
ATOM     32  C   UNL     1      18.793   3.419 -14.569  0.00  0.00    +0.008 A 
ATOM     33  C   UNL     1      19.586   2.793 -13.593  0.00  0.00    -0.016 A 
ATOM     34  C   UNL     1      20.922   2.484 -13.897  0.00  0.00    +0.008 A 
ATOM     35  C   UNL     1      21.749   1.863 -12.964  0.00  0.00    +0.001 A 
ATOM     36  C   UNL     1      21.246   1.540 -11.713  0.00  0.00    +0.001 A 
ATOM     37  C   UNL     1      19.919   1.842 -11.395  0.00  0.00    +0.010 A 
ATOM     38  C   UNL     1      19.045   2.480 -12.318  0.00  0.00    +0.008 A 
ENDBRANCH  26  29
ENDBRANCH  24  26
ENDBRANCH  23  24
ENDBRANCH   5  23
TORSDOF 6
ENDMDL
