MODEL 1
REMARK VINA RESULT:   -12.959      0.000      0.000
REMARK INTER + INTRA:         -18.216
REMARK INTER:                 -17.504
REMARK INTRA:                  -0.712
REMARK UNBOUND:                -0.712
REMARK  Name = CHEMBL16965
REMARK  6 active torsions:
REMARK  status: ('A' for Active; 'I' for Inactive)
REMARK    1  A    between atoms: N_5  and  C_6
REMARK    2  A    between atoms: C_6  and  C_7
REMARK    3  A    between atoms: C_11  and  C_12
REMARK    4  A    between atoms: C_12  and  N_13
REMARK    5  A    between atoms: N_13  and  S_14
REMARK    6  A    between atoms: S_14  and  C_17
REMARK                            x       y       z     vdW  Elec       q    Type
REMARK                         _______ _______ _______ _____ _____    ______ ____
ROOT
ATOM      1  C   UNL     1      -6.182 -14.493 -54.564  0.00  0.00    -0.030 A 
ATOM      2  C   UNL     1      -7.287 -15.201 -54.074  0.00  0.00    +0.005 A 
ATOM      3  C   UNL     1      -7.728 -15.004 -52.765  0.00  0.00    +0.001 A 
ATOM      4  C   UNL     1      -7.064 -14.105 -51.929  0.00  0.00    +0.005 A 
ATOM      5  C   UNL     1      -5.944 -13.403 -52.391  0.00  0.00    -0.032 A 
ATOM      6  C   UNL     1      -5.512 -13.601 -53.712  0.00  0.00    +0.010 A 
ENDROOT
BRANCH   1   7
ATOM      7  C   UNL     1      -5.691 -14.709 -55.978  0.00  0.00    +0.139 C 
BRANCH   7  12
ATOM      8  N   UNL     1      -1.306 -17.998 -57.780  0.00  0.00    -0.343 N 
ATOM      9  C   UNL     1      -2.332 -17.074 -58.019  0.00  0.00    +0.129 A 
ATOM     10  N   UNL     1      -2.821 -16.479 -56.925  0.00  0.00    -0.199 NA
ATOM     11  C   UNL     1      -3.793 -15.580 -57.104  0.00  0.00    +0.218 A 
ATOM     12  N   UNL     1      -4.270 -14.978 -55.948  0.00  0.00    -0.309 N 
ATOM     13  N   UNL     1      -4.306 -15.251 -58.294  0.00  0.00    -0.214 NA
ATOM     14  C   UNL     1      -3.818 -15.864 -59.379  0.00  0.00    +0.078 A 
ATOM     15  C   UNL     1      -4.338 -15.542 -60.628  0.00  0.00    +0.028 A 
ATOM     16  C   UNL     1      -3.879 -16.153 -61.799  0.00  0.00    +0.002 A 
ATOM     17  C   UNL     1      -2.879 -17.115 -61.729  0.00  0.00    +0.001 A 
ATOM     18  C   UNL     1      -2.343 -17.451 -60.490  0.00  0.00    +0.013 A 
ATOM     19  C   UNL     1      -2.805 -16.820 -59.309  0.00  0.00    +0.040 A 
ATOM     20  H   UNL     1      -1.114 -17.970 -56.781  0.00  0.00    +0.144 HD
ATOM     21  H   UNL     1      -0.479 -17.765 -58.321  0.00  0.00    +0.144 HD
ATOM     22  H   UNL     1      -3.965 -15.560 -55.175  0.00  0.00    +0.149 HD
ENDBRANCH   7  12
ENDBRANCH   1   7
BRANCH   5  23
ATOM     23  C   UNL     1      -5.230 -12.414 -51.502  0.00  0.00    +0.141 C 
BRANCH  23  24
ATOM     24  N   UNL     1      -4.350 -13.123 -50.550  0.00  0.00    -0.186 NA
ATOM     25  H   UNL     1      -4.465 -14.130 -50.663  0.00  0.00    +0.148 HD
BRANCH  24  26
ATOM     26  S   UNL     1      -2.714 -12.730 -50.721  0.00  0.00    +0.059 S 
ATOM     27  O   UNL     1      -2.636 -11.314 -51.012  0.00  0.00    -0.153 OA
ATOM     28  O   UNL     1      -2.138 -13.703 -51.622  0.00  0.00    -0.153 OA
BRANCH  26  29
ATOM     29  C   UNL     1      -2.104 -13.006 -49.069  0.00  0.00    +0.113 A 
ATOM     30  C   UNL     1      -3.023 -13.527 -48.143  0.00  0.00    +0.029 A 
ATOM     31  C   UNL     1      -2.630 -13.778 -46.835  0.00  0.00    +0.003 A 
ATOM     32  C   UNL     1      -1.321 -13.512 -46.447  0.00  0.00    +0.008 A 
ATOM     33  C   UNL     1      -0.384 -12.991 -47.355  0.00  0.00    -0.016 A 
ATOM     34  C   UNL     1       0.927 -12.746 -46.915  0.00  0.00    +0.008 A 
ATOM     35  C   UNL     1       1.892 -12.229 -47.776  0.00  0.00    +0.001 A 
ATOM     36  C   UNL     1       1.555 -11.946 -49.090  0.00  0.00    +0.001 A 
ATOM     37  C   UNL     1       0.255 -12.185 -49.544  0.00  0.00    +0.010 A 
ATOM     38  C   UNL     1      -0.757 -12.716 -48.698  0.00  0.00    +0.008 A 
ENDBRANCH  26  29
ENDBRANCH  24  26
ENDBRANCH  23  24
ENDBRANCH   5  23
TORSDOF 6
ENDMDL
MODEL 2
REMARK VINA RESULT:   -12.062      5.431     10.839
REMARK INTER + INTRA:         -17.005
REMARK INTER:                 -16.226
REMARK INTRA:                  -0.779
REMARK UNBOUND:                -0.712
REMARK  Name = CHEMBL16965
REMARK  6 active torsions:
REMARK  status: ('A' for Active; 'I' for Inactive)
REMARK    1  A    between atoms: N_5  and  C_6
REMARK    2  A    between atoms: C_6  and  C_7
REMARK    3  A    between atoms: C_11  and  C_12
REMARK    4  A    between atoms: C_12  and  N_13
REMARK    5  A    between atoms: N_13  and  S_14
REMARK    6  A    between atoms: S_14  and  C_17
REMARK                            x       y       z     vdW  Elec       q    Type
REMARK                         _______ _______ _______ _____ _____    ______ ____
ROOT
ATOM      1  C   UNL     1      -4.545 -15.560 -57.686  0.00  0.00    -0.030 A 
ATOM      2  C   UNL     1      -4.376 -15.013 -58.964  0.00  0.00    +0.005 A 
ATOM      3  C   UNL     1      -3.484 -15.591 -59.868  0.00  0.00    +0.001 A 
ATOM      4  C   UNL     1      -2.744 -16.716 -59.500  0.00  0.00    +0.005 A 
ATOM      5  C   UNL     1      -2.881 -17.266 -58.220  0.00  0.00    -0.032 A 
ATOM      6  C   UNL     1      -3.787 -16.683 -57.321  0.00  0.00    +0.010 A 
ENDROOT
BRANCH   1   7
ATOM      7  C   UNL     1      -5.503 -14.933 -56.697  0.00  0.00    +0.139 C 
BRANCH   7  12
ATOM      8  N   UNL     1      -5.563 -13.390 -51.137  0.00  0.00    -0.343 N 
ATOM      9  C   UNL     1      -6.190 -13.904 -52.280  0.00  0.00    +0.129 A 
ATOM     10  N   UNL     1      -5.359 -14.279 -53.259  0.00  0.00    -0.199 NA
ATOM     11  C   UNL     1      -5.911 -14.788 -54.364  0.00  0.00    +0.218 A 
ATOM     12  N   UNL     1      -5.019 -15.173 -55.355  0.00  0.00    -0.309 N 
ATOM     13  N   UNL     1      -7.227 -14.934 -54.551  0.00  0.00    -0.214 NA
ATOM     14  C   UNL     1      -8.047 -14.542 -53.571  0.00  0.00    +0.078 A 
ATOM     15  C   UNL     1      -9.420 -14.680 -53.742  0.00  0.00    +0.028 A 
ATOM     16  C   UNL     1     -10.333 -14.281 -52.760  0.00  0.00    +0.002 A 
ATOM     17  C   UNL     1      -9.869 -13.724 -51.574  0.00  0.00    +0.001 A 
ATOM     18  C   UNL     1      -8.499 -13.578 -51.380  0.00  0.00    +0.013 A 
ATOM     19  C   UNL     1      -7.581 -13.995 -52.375  0.00  0.00    +0.040 A 
ATOM     20  H   UNL     1      -4.560 -13.471 -51.293  0.00  0.00    +0.144 HD
ATOM     21  H   UNL     1      -5.849 -13.903 -50.309  0.00  0.00    +0.144 HD
ATOM     22  H   UNL     1      -4.136 -14.722 -55.136  0.00  0.00    +0.149 HD
ENDBRANCH   7  12
ENDBRANCH   1   7
BRANCH   5  23
ATOM     23  C   UNL     1      -2.100 -18.494 -57.819  0.00  0.00    +0.141 C 
BRANCH  23  24
ATOM     24  N   UNL     1      -0.806 -18.535 -58.532  0.00  0.00    -0.186 NA
ATOM     25  H   UNL     1      -0.048 -18.653 -57.860  0.00  0.00    +0.148 HD
BRANCH  24  26
ATOM     26  S   UNL     1      -0.713 -19.761 -59.693  0.00  0.00    +0.059 S 
ATOM     27  O   UNL     1      -2.006 -20.409 -59.744  0.00  0.00    -0.153 OA
ATOM     28  O   UNL     1       0.483 -20.521 -59.408  0.00  0.00    -0.153 OA
BRANCH  26  29
ATOM     29  C   UNL     1      -0.486 -18.822 -61.190  0.00  0.00    +0.113 A 
ATOM     30  C   UNL     1      -1.525 -18.889 -62.134  0.00  0.00    +0.029 A 
ATOM     31  C   UNL     1      -1.432 -18.183 -63.326  0.00  0.00    +0.003 A 
ATOM     32  C   UNL     1      -0.305 -17.409 -63.581  0.00  0.00    +0.008 A 
ATOM     33  C   UNL     1       0.747 -17.327 -62.653  0.00  0.00    -0.016 A 
ATOM     34  C   UNL     1       1.860 -16.526 -62.956  0.00  0.00    +0.008 A 
ATOM     35  C   UNL     1       2.930 -16.411 -62.070  0.00  0.00    +0.001 A 
ATOM     36  C   UNL     1       2.899 -17.103 -60.869  0.00  0.00    +0.001 A 
ATOM     37  C   UNL     1       1.798 -17.904 -60.553  0.00  0.00    +0.010 A 
ATOM     38  C   UNL     1       0.685 -18.043 -61.428  0.00  0.00    +0.008 A 
ENDBRANCH  26  29
ENDBRANCH  24  26
ENDBRANCH  23  24
ENDBRANCH   5  23
TORSDOF 6
ENDMDL
MODEL 3
REMARK VINA RESULT:   -11.733      5.408     11.394
REMARK INTER + INTRA:         -16.561
REMARK INTER:                 -15.886
REMARK INTRA:                  -0.675
REMARK UNBOUND:                -0.712
REMARK  Name = CHEMBL16965
REMARK  6 active torsions:
REMARK  status: ('A' for Active; 'I' for Inactive)
REMARK    1  A    between atoms: N_5  and  C_6
REMARK    2  A    between atoms: C_6  and  C_7
REMARK    3  A    between atoms: C_11  and  C_12
REMARK    4  A    between atoms: C_12  and  N_13
REMARK    5  A    between atoms: N_13  and  S_14
REMARK    6  A    between atoms: S_14  and  C_17
REMARK                            x       y       z     vdW  Elec       q    Type
REMARK                         _______ _______ _______ _____ _____    ______ ____
ROOT
ATOM      1  C   UNL     1      -4.533 -15.518 -57.703  0.00  0.00    -0.030 A 
ATOM      2  C   UNL     1      -4.469 -15.040 -59.018  0.00  0.00    +0.005 A 
ATOM      3  C   UNL     1      -3.551 -15.576 -59.921  0.00  0.00    +0.001 A 
ATOM      4  C   UNL     1      -2.680 -16.588 -59.518  0.00  0.00    +0.005 A 
ATOM      5  C   UNL     1      -2.711 -17.067 -58.202  0.00  0.00    -0.032 A 
ATOM      6  C   UNL     1      -3.644 -16.528 -57.302  0.00  0.00    +0.010 A 
ENDROOT
BRANCH   1   7
ATOM      7  C   UNL     1      -5.518 -14.935 -56.715  0.00  0.00    +0.139 C 
BRANCH   7  12
ATOM      8  N   UNL     1      -5.606 -13.440 -51.142  0.00  0.00    -0.343 N 
ATOM      9  C   UNL     1      -6.229 -13.939 -52.294  0.00  0.00    +0.129 A 
ATOM     10  N   UNL     1      -5.394 -14.312 -53.270  0.00  0.00    -0.199 NA
ATOM     11  C   UNL     1      -5.942 -14.807 -54.383  0.00  0.00    +0.218 A 
ATOM     12  N   UNL     1      -5.046 -15.190 -55.371  0.00  0.00    -0.309 N 
ATOM     13  N   UNL     1      -7.258 -14.940 -54.582  0.00  0.00    -0.214 NA
ATOM     14  C   UNL     1      -8.082 -14.550 -53.603  0.00  0.00    +0.078 A 
ATOM     15  C   UNL     1      -9.455 -14.675 -53.786  0.00  0.00    +0.028 A 
ATOM     16  C   UNL     1     -10.371 -14.277 -52.807  0.00  0.00    +0.002 A 
ATOM     17  C   UNL     1      -9.912 -13.734 -51.613  0.00  0.00    +0.001 A 
ATOM     18  C   UNL     1      -8.542 -13.601 -51.407  0.00  0.00    +0.013 A 
ATOM     19  C   UNL     1      -7.620 -14.017 -52.400  0.00  0.00    +0.040 A 
ATOM     20  H   UNL     1      -4.603 -13.527 -51.291  0.00  0.00    +0.144 HD
ATOM     21  H   UNL     1      -5.902 -13.957 -50.321  0.00  0.00    +0.144 HD
ATOM     22  H   UNL     1      -4.162 -14.749 -55.142  0.00  0.00    +0.149 HD
ENDBRANCH   7  12
ENDBRANCH   1   7
BRANCH   5  23
ATOM     23  C   UNL     1      -1.787 -18.176 -57.760  0.00  0.00    +0.141 C 
BRANCH  23  24
ATOM     24  N   UNL     1      -0.677 -18.331 -58.723  0.00  0.00    -0.186 NA
ATOM     25  H   UNL     1       0.213 -18.319 -58.224  0.00  0.00    +0.148 HD
BRANCH  24  26
ATOM     26  S   UNL     1      -0.775 -19.746 -59.645  0.00  0.00    +0.059 S 
ATOM     27  O   UNL     1      -2.087 -20.317 -59.425  0.00  0.00    -0.153 OA
ATOM     28  O   UNL     1       0.420 -20.512 -59.371  0.00  0.00    -0.153 OA
BRANCH  26  29
ATOM     29  C   UNL     1      -0.706 -19.098 -61.304  0.00  0.00    +0.113 A 
ATOM     30  C   UNL     1       0.562 -18.712 -61.771  0.00  0.00    +0.029 A 
ATOM     31  C   UNL     1       0.708 -18.202 -63.054  0.00  0.00    +0.003 A 
ATOM     32  C   UNL     1      -0.409 -18.076 -63.875  0.00  0.00    +0.008 A 
ATOM     33  C   UNL     1      -1.686 -18.455 -63.430  0.00  0.00    -0.016 A 
ATOM     34  C   UNL     1      -2.779 -18.314 -64.300  0.00  0.00    +0.008 A 
ATOM     35  C   UNL     1      -4.066 -18.675 -63.907  0.00  0.00    +0.001 A 
ATOM     36  C   UNL     1      -4.275 -19.178 -62.632  0.00  0.00    +0.001 A 
ATOM     37  C   UNL     1      -3.197 -19.325 -61.755  0.00  0.00    +0.010 A 
ATOM     38  C   UNL     1      -1.869 -18.973 -62.120  0.00  0.00    +0.008 A 
ENDBRANCH  26  29
ENDBRANCH  24  26
ENDBRANCH  23  24
ENDBRANCH   5  23
TORSDOF 6
ENDMDL
