MODEL 1
REMARK VINA RESULT:   -13.309      0.000      0.000
REMARK INTER + INTRA:         -18.509
REMARK INTER:                 -17.977
REMARK INTRA:                  -0.532
REMARK UNBOUND:                -0.532
REMARK  Name = CHEMBL16965
REMARK  6 active torsions:
REMARK  status: ('A' for Active; 'I' for Inactive)
REMARK    1  A    between atoms: N_5  and  C_6
REMARK    2  A    between atoms: C_6  and  C_7
REMARK    3  A    between atoms: C_11  and  C_12
REMARK    4  A    between atoms: C_12  and  N_13
REMARK    5  A    between atoms: N_13  and  S_14
REMARK    6  A    between atoms: S_14  and  C_17
REMARK                            x       y       z     vdW  Elec       q    Type
REMARK                         _______ _______ _______ _____ _____    ______ ____
ROOT
ATOM      1  C   UNL     1     -26.279   5.534   8.147  0.00  0.00    -0.030 A 
ATOM      2  C   UNL     1     -25.165   5.802   8.953  0.00  0.00    +0.005 A 
ATOM      3  C   UNL     1     -24.935   5.057  10.110  0.00  0.00    +0.001 A 
ATOM      4  C   UNL     1     -25.821   4.043  10.479  0.00  0.00    +0.005 A 
ATOM      5  C   UNL     1     -26.953   3.773   9.700  0.00  0.00    -0.032 A 
ATOM      6  C   UNL     1     -27.171   4.522   8.533  0.00  0.00    +0.010 A 
ENDROOT
BRANCH   1   7
ATOM      7  C   UNL     1     -26.541   6.345   6.897  0.00  0.00    +0.139 C 
BRANCH   7  12
ATOM      8  N   UNL     1     -25.930  11.790   5.087  0.00  0.00    -0.343 N 
ATOM      9  C   UNL     1     -26.639  10.789   5.764  0.00  0.00    +0.129 A 
ATOM     10  N   UNL     1     -25.934   9.686   6.041  0.00  0.00    -0.199 NA
ATOM     11  C   UNL     1     -26.565   8.709   6.698  0.00  0.00    +0.218 A 
ATOM     12  N   UNL     1     -25.800   7.584   6.975  0.00  0.00    -0.309 N 
ATOM     13  N   UNL     1     -27.845   8.762   7.082  0.00  0.00    -0.214 NA
ATOM     14  C   UNL     1     -28.543   9.864   6.786  0.00  0.00    +0.078 A 
ATOM     15  C   UNL     1     -29.877   9.942   7.171  0.00  0.00    +0.028 A 
ATOM     16  C   UNL     1     -30.665  11.061   6.884  0.00  0.00    +0.002 A 
ATOM     17  C   UNL     1     -30.115  12.133   6.191  0.00  0.00    +0.001 A 
ATOM     18  C   UNL     1     -28.782  12.077   5.798  0.00  0.00    +0.013 A 
ATOM     19  C   UNL     1     -27.986  10.944   6.102  0.00  0.00    +0.040 A 
ATOM     20  H   UNL     1     -24.971  11.460   4.999  0.00  0.00    +0.144 HD
ATOM     21  H   UNL     1     -25.973  12.667   5.595  0.00  0.00    +0.144 HD
ATOM     22  H   UNL     1     -24.990   7.633   6.366  0.00  0.00    +0.149 HD
ENDBRANCH   7  12
ENDBRANCH   1   7
BRANCH   5  23
ATOM     23  C   UNL     1     -27.907   2.666  10.079  0.00  0.00    +0.141 C 
BRANCH  23  24
ATOM     24  N   UNL     1     -27.404   1.366   9.586  0.00  0.00    -0.186 NA
ATOM     25  H   UNL     1     -26.546   1.511   9.053  0.00  0.00    +0.148 HD
BRANCH  24  26
ATOM     26  S   UNL     1     -27.109   0.246  10.818  0.00  0.00    +0.059 S 
ATOM     27  O   UNL     1     -25.951   0.705  11.553  0.00  0.00    -0.153 OA
ATOM     28  O   UNL     1     -27.126  -1.065  10.208  0.00  0.00    -0.153 OA
BRANCH  26  29
ATOM     29  C   UNL     1     -28.553   0.450  11.842  0.00  0.00    +0.113 A 
ATOM     30  C   UNL     1     -28.352   1.063  13.091  0.00  0.00    +0.029 A 
ATOM     31  C   UNL     1     -29.425   1.265  13.949  0.00  0.00    +0.003 A 
ATOM     32  C   UNL     1     -30.699   0.859  13.566  0.00  0.00    +0.008 A 
ATOM     33  C   UNL     1     -30.924   0.244  12.324  0.00  0.00    -0.016 A 
ATOM     34  C   UNL     1     -32.231  -0.142  11.982  0.00  0.00    +0.008 A 
ATOM     35  C   UNL     1     -32.507  -0.756  10.763  0.00  0.00    +0.001 A 
ATOM     36  C   UNL     1     -31.474  -0.996   9.870  0.00  0.00    +0.001 A 
ATOM     37  C   UNL     1     -30.168  -0.618  10.195  0.00  0.00    +0.010 A 
ATOM     38  C   UNL     1     -29.847   0.016  11.426  0.00  0.00    +0.008 A 
ENDBRANCH  26  29
ENDBRANCH  24  26
ENDBRANCH  23  24
ENDBRANCH   5  23
TORSDOF 6
ENDMDL
MODEL 2
REMARK VINA RESULT:   -13.043      3.108      3.543
REMARK INTER + INTRA:         -18.150
REMARK INTER:                 -17.207
REMARK INTRA:                  -0.943
REMARK UNBOUND:                -0.532
REMARK  Name = CHEMBL16965
REMARK  6 active torsions:
REMARK  status: ('A' for Active; 'I' for Inactive)
REMARK    1  A    between atoms: N_5  and  C_6
REMARK    2  A    between atoms: C_6  and  C_7
REMARK    3  A    between atoms: C_11  and  C_12
REMARK    4  A    between atoms: C_12  and  N_13
REMARK    5  A    between atoms: N_13  and  S_14
REMARK    6  A    between atoms: S_14  and  C_17
REMARK                            x       y       z     vdW  Elec       q    Type
REMARK                         _______ _______ _______ _____ _____    ______ ____
ROOT
ATOM      1  C   UNL     1     -26.697   5.074   8.561  0.00  0.00    -0.030 A 
ATOM      2  C   UNL     1     -25.532   5.189   9.330  0.00  0.00    +0.005 A 
ATOM      3  C   UNL     1     -25.379   4.440  10.497  0.00  0.00    +0.001 A 
ATOM      4  C   UNL     1     -26.392   3.574  10.912  0.00  0.00    +0.005 A 
ATOM      5  C   UNL     1     -27.574   3.459  10.170  0.00  0.00    -0.032 A 
ATOM      6  C   UNL     1     -27.716   4.211   8.993  0.00  0.00    +0.010 A 
ENDROOT
BRANCH   1   7
ATOM      7  C   UNL     1     -26.875   5.891   7.300  0.00  0.00    +0.139 C 
BRANCH   7  12
ATOM      8  N   UNL     1     -25.816  11.240   5.412  0.00  0.00    -0.343 N 
ATOM      9  C   UNL     1     -26.623  10.303   6.072  0.00  0.00    +0.129 A 
ATOM     10  N   UNL     1     -26.007   9.164   6.408  0.00  0.00    -0.199 NA
ATOM     11  C   UNL     1     -26.733   8.246   7.052  0.00  0.00    +0.218 A 
ATOM     12  N   UNL     1     -26.058   7.081   7.391  0.00  0.00    -0.309 N 
ATOM     13  N   UNL     1     -28.024   8.391   7.367  0.00  0.00    -0.214 NA
ATOM     14  C   UNL     1     -28.633   9.528   7.012  0.00  0.00    +0.078 A 
ATOM     15  C   UNL     1     -29.976   9.702   7.325  0.00  0.00    +0.028 A 
ATOM     16  C   UNL     1     -30.674  10.862   6.974  0.00  0.00    +0.002 A 
ATOM     17  C   UNL     1     -30.020  11.879   6.289  0.00  0.00    +0.001 A 
ATOM     18  C   UNL     1     -28.675  11.728   5.967  0.00  0.00    +0.013 A 
ATOM     19  C   UNL     1     -27.972  10.554   6.336  0.00  0.00    +0.040 A 
ATOM     20  H   UNL     1     -24.877  10.846   5.382  0.00  0.00    +0.144 HD
ATOM     21  H   UNL     1     -25.827  12.130   5.899  0.00  0.00    +0.144 HD
ATOM     22  H   UNL     1     -25.217   7.062   6.824  0.00  0.00    +0.149 HD
ENDBRANCH   7  12
ENDBRANCH   1   7
BRANCH   5  23
ATOM     23  C   UNL     1     -28.668   2.511  10.599  0.00  0.00    +0.141 C 
BRANCH  23  24
ATOM     24  N   UNL     1     -29.812   2.595   9.668  0.00  0.00    -0.186 NA
ATOM     25  H   UNL     1     -29.572   2.136   8.789  0.00  0.00    +0.148 HD
BRANCH  24  26
ATOM     26  S   UNL     1     -31.232   1.910  10.280  0.00  0.00    +0.059 S 
ATOM     27  O   UNL     1     -31.046   1.724  11.703  0.00  0.00    -0.153 OA
ATOM     28  O   UNL     1     -31.564   0.792   9.425  0.00  0.00    -0.153 OA
BRANCH  26  29
ATOM     29  C   UNL     1     -32.405   3.228  10.025  0.00  0.00    +0.113 A 
ATOM     30  C   UNL     1     -31.884   4.444   9.550  0.00  0.00    +0.029 A 
ATOM     31  C   UNL     1     -32.729   5.522   9.319  0.00  0.00    +0.003 A 
ATOM     32  C   UNL     1     -34.093   5.391   9.559  0.00  0.00    +0.008 A 
ATOM     33  C   UNL     1     -34.636   4.186  10.035  0.00  0.00    -0.016 A 
ATOM     34  C   UNL     1     -36.021   4.104  10.255  0.00  0.00    +0.008 A 
ATOM     35  C   UNL     1     -36.608   2.932  10.727  0.00  0.00    +0.001 A 
ATOM     36  C   UNL     1     -35.814   1.826  10.988  0.00  0.00    +0.001 A 
ATOM     37  C   UNL     1     -34.434   1.892  10.773  0.00  0.00    +0.010 A 
ATOM     38  C   UNL     1     -33.798   3.068  10.288  0.00  0.00    +0.008 A 
ENDBRANCH  26  29
ENDBRANCH  24  26
ENDBRANCH  23  24
ENDBRANCH   5  23
TORSDOF 6
ENDMDL
MODEL 3
REMARK VINA RESULT:   -12.837      4.969      8.639
REMARK INTER + INTRA:         -17.871
REMARK INTER:                 -17.241
REMARK INTRA:                  -0.631
REMARK UNBOUND:                -0.532
REMARK  Name = CHEMBL16965
REMARK  6 active torsions:
REMARK  status: ('A' for Active; 'I' for Inactive)
REMARK    1  A    between atoms: N_5  and  C_6
REMARK    2  A    between atoms: C_6  and  C_7
REMARK    3  A    between atoms: C_11  and  C_12
REMARK    4  A    between atoms: C_12  and  N_13
REMARK    5  A    between atoms: N_13  and  S_14
REMARK    6  A    between atoms: S_14  and  C_17
REMARK                            x       y       z     vdW  Elec       q    Type
REMARK                         _______ _______ _______ _____ _____    ______ ____
ROOT
ATOM      1  C   UNL     1     -26.817   6.998   7.456  0.00  0.00    -0.030 A 
ATOM      2  C   UNL     1     -26.103   7.637   6.435  0.00  0.00    +0.005 A 
ATOM      3  C   UNL     1     -26.648   8.738   5.774  0.00  0.00    +0.001 A 
ATOM      4  C   UNL     1     -27.916   9.207   6.120  0.00  0.00    +0.005 A 
ATOM      5  C   UNL     1     -28.657   8.569   7.124  0.00  0.00    -0.032 A 
ATOM      6  C   UNL     1     -28.097   7.468   7.789  0.00  0.00    +0.010 A 
ENDROOT
BRANCH   1   7
ATOM      7  C   UNL     1     -26.237   5.797   8.170  0.00  0.00    +0.139 C 
BRANCH   7  12
ATOM      8  N   UNL     1     -28.427   1.787  11.695  0.00  0.00    -0.343 N 
ATOM      9  C   UNL     1     -27.345   2.499  11.159  0.00  0.00    +0.129 A 
ATOM     10  N   UNL     1     -27.673   3.619  10.507  0.00  0.00    -0.199 NA
ATOM     11  C   UNL     1     -26.673   4.338   9.990  0.00  0.00    +0.218 A 
ATOM     12  N   UNL     1     -27.051   5.498   9.328  0.00  0.00    -0.309 N 
ATOM     13  N   UNL     1     -25.381   4.005  10.076  0.00  0.00    -0.214 NA
ATOM     14  C   UNL     1     -25.067   2.874  10.717  0.00  0.00    +0.078 A 
ATOM     15  C   UNL     1     -23.731   2.502  10.817  0.00  0.00    +0.028 A 
ATOM     16  C   UNL     1     -23.336   1.328  11.466  0.00  0.00    +0.002 A 
ATOM     17  C   UNL     1     -24.295   0.495  12.029  0.00  0.00    +0.001 A 
ATOM     18  C   UNL     1     -25.638   0.848  11.943  0.00  0.00    +0.013 A 
ATOM     19  C   UNL     1     -26.029   2.045  11.294  0.00  0.00    +0.040 A 
ATOM     20  H   UNL     1     -29.261   2.339  11.505  0.00  0.00    +0.144 HD
ATOM     21  H   UNL     1     -28.301   1.639  12.691  0.00  0.00    +0.144 HD
ATOM     22  H   UNL     1     -28.044   5.407   9.136  0.00  0.00    +0.149 HD
ENDBRANCH   7  12
ENDBRANCH   1   7
BRANCH   5  23
ATOM     23  C   UNL     1     -30.022   9.079   7.520  0.00  0.00    +0.141 C 
BRANCH  23  24
ATOM     24  N   UNL     1     -30.989   7.963   7.576  0.00  0.00    -0.186 NA
ATOM     25  H   UNL     1     -31.026   7.590   8.525  0.00  0.00    +0.148 HD
BRANCH  24  26
ATOM     26  S   UNL     1     -32.550   8.397   7.090  0.00  0.00    +0.059 S 
ATOM     27  O   UNL     1     -32.464   8.867   5.725  0.00  0.00    -0.153 OA
ATOM     28  O   UNL     1     -33.096   9.241   8.130  0.00  0.00    -0.153 OA
BRANCH  26  29
ATOM     29  C   UNL     1     -33.380   6.820   7.101  0.00  0.00    +0.113 A 
ATOM     30  C   UNL     1     -33.801   6.327   5.853  0.00  0.00    +0.029 A 
ATOM     31  C   UNL     1     -34.451   5.103   5.770  0.00  0.00    +0.003 A 
ATOM     32  C   UNL     1     -34.682   4.367   6.927  0.00  0.00    +0.008 A 
ATOM     33  C   UNL     1     -34.272   4.839   8.185  0.00  0.00    -0.016 A 
ATOM     34  C   UNL     1     -34.525   4.054   9.322  0.00  0.00    +0.008 A 
ATOM     35  C   UNL     1     -34.139   4.478  10.592  0.00  0.00    +0.001 A 
ATOM     36  C   UNL     1     -33.497   5.698  10.739  0.00  0.00    +0.001 A 
ATOM     37  C   UNL     1     -33.238   6.490   9.617  0.00  0.00    +0.010 A 
ATOM     38  C   UNL     1     -33.612   6.091   8.305  0.00  0.00    +0.008 A 
ENDBRANCH  26  29
ENDBRANCH  24  26
ENDBRANCH  23  24
ENDBRANCH   5  23
TORSDOF 6
ENDMDL
