MODEL 1
REMARK VINA RESULT:   -13.351      0.000      0.000
REMARK INTER + INTRA:         -18.218
REMARK INTER:                 -18.034
REMARK INTRA:                  -0.184
REMARK UNBOUND:                -0.184
REMARK  Name = CHEMBL16965
REMARK  6 active torsions:
REMARK  status: ('A' for Active; 'I' for Inactive)
REMARK    1  A    between atoms: N_5  and  C_6
REMARK    2  A    between atoms: C_6  and  C_7
REMARK    3  A    between atoms: C_11  and  C_12
REMARK    4  A    between atoms: C_12  and  N_13
REMARK    5  A    between atoms: N_13  and  S_14
REMARK    6  A    between atoms: S_14  and  C_17
REMARK                            x       y       z     vdW  Elec       q    Type
REMARK                         _______ _______ _______ _____ _____    ______ ____
ROOT
ATOM      1  C   UNL     1     -33.004   5.596   7.739  0.00  0.00    -0.030 A 
ATOM      2  C   UNL     1     -33.888   5.048   6.801  0.00  0.00    +0.005 A 
ATOM      3  C   UNL     1     -34.073   5.661   5.561  0.00  0.00    +0.001 A 
ATOM      4  C   UNL     1     -33.384   6.834   5.250  0.00  0.00    +0.005 A 
ATOM      5  C   UNL     1     -32.512   7.412   6.181  0.00  0.00    -0.032 A 
ATOM      6  C   UNL     1     -32.326   6.783   7.422  0.00  0.00    +0.010 A 
ENDROOT
BRANCH   1   7
ATOM      7  C   UNL     1     -32.806   4.943   9.089  0.00  0.00    +0.139 C 
BRANCH   7  12
ATOM      8  N   UNL     1     -38.107   6.012  11.104  0.00  0.00    -0.343 N 
ATOM      9  C   UNL     1     -37.035   5.144  10.856  0.00  0.00    +0.129 A 
ATOM     10  N   UNL     1     -35.874   5.747  10.575  0.00  0.00    -0.199 NA
ATOM     11  C   UNL     1     -34.820   4.960  10.345  0.00  0.00    +0.218 A 
ATOM     12  N   UNL     1     -33.631   5.620  10.065  0.00  0.00    -0.309 N 
ATOM     13  N   UNL     1     -34.856   3.623  10.366  0.00  0.00    -0.214 NA
ATOM     14  C   UNL     1     -36.026   3.033  10.633  0.00  0.00    +0.078 A 
ATOM     15  C   UNL     1     -36.093   1.644  10.658  0.00  0.00    +0.028 A 
ATOM     16  C   UNL     1     -37.286   0.965  10.920  0.00  0.00    +0.002 A 
ATOM     17  C   UNL     1     -38.451   1.684  11.161  0.00  0.00    +0.001 A 
ATOM     18  C   UNL     1     -38.408   3.075  11.143  0.00  0.00    +0.013 A 
ATOM     19  C   UNL     1     -37.192   3.756  10.887  0.00  0.00    +0.040 A 
ATOM     20  H   UNL     1     -37.732   6.957  11.067  0.00  0.00    +0.144 HD
ATOM     21  H   UNL     1     -38.525   5.816  12.007  0.00  0.00    +0.144 HD
ATOM     22  H   UNL     1     -33.883   6.572   9.820  0.00  0.00    +0.149 HD
ENDBRANCH   7  12
ENDBRANCH   1   7
BRANCH   5  23
ATOM     23  C   UNL     1     -31.746   8.669   5.847  0.00  0.00    +0.141 C 
BRANCH  23  24
ATOM     24  N   UNL     1     -31.121   9.227   7.064  0.00  0.00    -0.186 NA
ATOM     25  H   UNL     1     -30.232   8.757   7.238  0.00  0.00    +0.148 HD
BRANCH  24  26
ATOM     26  S   UNL     1     -30.859  10.896   6.986  0.00  0.00    +0.059 S 
ATOM     27  O   UNL     1     -30.891  11.404   8.340  0.00  0.00    -0.153 OA
ATOM     28  O   UNL     1     -31.757  11.416   5.979  0.00  0.00    -0.153 OA
BRANCH  26  29
ATOM     29  C   UNL     1     -29.181  10.968   6.389  0.00  0.00    +0.113 A 
ATOM     30  C   UNL     1     -28.817  12.131   5.689  0.00  0.00    +0.029 A 
ATOM     31  C   UNL     1     -27.527  12.272   5.193  0.00  0.00    +0.003 A 
ATOM     32  C   UNL     1     -26.598  11.257   5.395  0.00  0.00    +0.008 A 
ATOM     33  C   UNL     1     -26.939  10.085   6.091  0.00  0.00    -0.016 A 
ATOM     34  C   UNL     1     -25.962   9.093   6.273  0.00  0.00    +0.008 A 
ATOM     35  C   UNL     1     -26.250   7.913   6.956  0.00  0.00    +0.001 A 
ATOM     36  C   UNL     1     -27.524   7.710   7.462  0.00  0.00    +0.001 A 
ATOM     37  C   UNL     1     -28.508   8.688   7.289  0.00  0.00    +0.010 A 
ATOM     38  C   UNL     1     -28.252   9.907   6.603  0.00  0.00    +0.008 A 
ENDBRANCH  26  29
ENDBRANCH  24  26
ENDBRANCH  23  24
ENDBRANCH   5  23
TORSDOF 6
ENDMDL
MODEL 2
REMARK VINA RESULT:   -13.338      4.863      8.941
REMARK INTER + INTRA:         -18.201
REMARK INTER:                 -16.755
REMARK INTRA:                  -1.446
REMARK UNBOUND:                -0.184
REMARK  Name = CHEMBL16965
REMARK  6 active torsions:
REMARK  status: ('A' for Active; 'I' for Inactive)
REMARK    1  A    between atoms: N_5  and  C_6
REMARK    2  A    between atoms: C_6  and  C_7
REMARK    3  A    between atoms: C_11  and  C_12
REMARK    4  A    between atoms: C_12  and  N_13
REMARK    5  A    between atoms: N_13  and  S_14
REMARK    6  A    between atoms: S_14  and  C_17
REMARK                            x       y       z     vdW  Elec       q    Type
REMARK                         _______ _______ _______ _____ _____    ______ ____
ROOT
ATOM      1  C   UNL     1     -30.477   0.928  11.079  0.00  0.00    -0.030 A 
ATOM      2  C   UNL     1     -30.739   0.928  12.455  0.00  0.00    +0.005 A 
ATOM      3  C   UNL     1     -32.032   1.151  12.927  0.00  0.00    +0.001 A 
ATOM      4  C   UNL     1     -33.076   1.386  12.031  0.00  0.00    +0.005 A 
ATOM      5  C   UNL     1     -32.833   1.411  10.652  0.00  0.00    -0.032 A 
ATOM      6  C   UNL     1     -31.530   1.178  10.185  0.00  0.00    +0.010 A 
ENDROOT
BRANCH   1   7
ATOM      7  C   UNL     1     -29.075   0.697  10.559  0.00  0.00    +0.139 C 
BRANCH   7  12
ATOM      8  N   UNL     1     -23.968   3.275  11.314  0.00  0.00    -0.343 N 
ATOM      9  C   UNL     1     -25.275   3.254  10.809  0.00  0.00    +0.129 A 
ATOM     10  N   UNL     1     -26.071   2.318  11.339  0.00  0.00    -0.199 NA
ATOM     11  C   UNL     1     -27.330   2.269  10.898  0.00  0.00    +0.218 A 
ATOM     12  N   UNL     1     -28.128   1.291  11.476  0.00  0.00    -0.309 N 
ATOM     13  N   UNL     1     -27.835   3.081   9.963  0.00  0.00    -0.214 NA
ATOM     14  C   UNL     1     -27.025   4.002   9.430  0.00  0.00    +0.078 A 
ATOM     15  C   UNL     1     -27.524   4.857   8.452  0.00  0.00    +0.028 A 
ATOM     16  C   UNL     1     -26.728   5.835   7.848  0.00  0.00    +0.002 A 
ATOM     17  C   UNL     1     -25.396   5.967   8.221  0.00  0.00    +0.001 A 
ATOM     18  C   UNL     1     -24.875   5.124   9.198  0.00  0.00    +0.013 A 
ATOM     19  C   UNL     1     -25.692   4.143   9.814  0.00  0.00    +0.040 A 
ATOM     20  H   UNL     1     -23.928   2.572  12.050  0.00  0.00    +0.144 HD
ATOM     21  H   UNL     1     -23.736   4.196  11.671  0.00  0.00    +0.144 HD
ATOM     22  H   UNL     1     -27.497   0.632  11.919  0.00  0.00    +0.149 HD
ENDBRANCH   7  12
ENDBRANCH   1   7
BRANCH   5  23
ATOM     23  C   UNL     1     -33.958   1.645   9.672  0.00  0.00    +0.141 C 
BRANCH  23  24
ATOM     24  N   UNL     1     -34.462   3.028   9.792  0.00  0.00    -0.186 NA
ATOM     25  H   UNL     1     -33.780   3.599  10.293  0.00  0.00    +0.148 HD
BRANCH  24  26
ATOM     26  S   UNL     1     -34.805   3.754   8.303  0.00  0.00    +0.059 S 
ATOM     27  O   UNL     1     -36.052   4.473   8.448  0.00  0.00    -0.153 OA
ATOM     28  O   UNL     1     -34.654   2.732   7.292  0.00  0.00    -0.153 OA
BRANCH  26  29
ATOM     29  C   UNL     1     -33.478   4.935   8.166  0.00  0.00    +0.113 A 
ATOM     30  C   UNL     1     -32.595   5.013   9.256  0.00  0.00    +0.029 A 
ATOM     31  C   UNL     1     -31.529   5.903   9.230  0.00  0.00    +0.003 A 
ATOM     32  C   UNL     1     -31.340   6.717   8.118  0.00  0.00    +0.008 A 
ATOM     33  C   UNL     1     -32.210   6.658   7.016  0.00  0.00    -0.016 A 
ATOM     34  C   UNL     1     -31.971   7.496   5.915  0.00  0.00    +0.008 A 
ATOM     35  C   UNL     1     -32.804   7.476   4.799  0.00  0.00    +0.001 A 
ATOM     36  C   UNL     1     -33.892   6.617   4.773  0.00  0.00    +0.001 A 
ATOM     37  C   UNL     1     -34.142   5.776   5.861  0.00  0.00    +0.010 A 
ATOM     38  C   UNL     1     -33.313   5.763   7.016  0.00  0.00    +0.008 A 
ENDBRANCH  26  29
ENDBRANCH  24  26
ENDBRANCH  23  24
ENDBRANCH   5  23
TORSDOF 6
ENDMDL
MODEL 3
REMARK VINA RESULT:   -13.291      6.419     11.483
REMARK INTER + INTRA:         -18.137
REMARK INTER:                 -17.666
REMARK INTRA:                  -0.471
REMARK UNBOUND:                -0.184
REMARK  Name = CHEMBL16965
REMARK  6 active torsions:
REMARK  status: ('A' for Active; 'I' for Inactive)
REMARK    1  A    between atoms: N_5  and  C_6
REMARK    2  A    between atoms: C_6  and  C_7
REMARK    3  A    between atoms: C_11  and  C_12
REMARK    4  A    between atoms: C_12  and  N_13
REMARK    5  A    between atoms: N_13  and  S_14
REMARK    6  A    between atoms: S_14  and  C_17
REMARK                            x       y       z     vdW  Elec       q    Type
REMARK                         _______ _______ _______ _____ _____    ______ ____
ROOT
ATOM      1  C   UNL     1     -26.104   5.271   8.307  0.00  0.00    -0.030 A 
ATOM      2  C   UNL     1     -24.902   5.467   8.999  0.00  0.00    +0.005 A 
ATOM      3  C   UNL     1     -24.576   4.661  10.091  0.00  0.00    +0.001 A 
ATOM      4  C   UNL     1     -25.452   3.658  10.508  0.00  0.00    +0.005 A 
ATOM      5  C   UNL     1     -26.669   3.460   9.844  0.00  0.00    -0.032 A 
ATOM      6  C   UNL     1     -26.984   4.269   8.742  0.00  0.00    +0.010 A 
ENDROOT
BRANCH   1   7
ATOM      7  C   UNL     1     -26.469   6.147   7.129  0.00  0.00    +0.139 C 
BRANCH   7  12
ATOM      8  N   UNL     1     -25.429  11.420   5.027  0.00  0.00    -0.343 N 
ATOM      9  C   UNL     1     -26.214  10.517   5.758  0.00  0.00    +0.129 A 
ATOM     10  N   UNL     1     -25.598   9.378   6.094  0.00  0.00    -0.199 NA
ATOM     11  C   UNL     1     -26.303   8.492   6.803  0.00  0.00    +0.218 A 
ATOM     12  N   UNL     1     -25.630   7.326   7.140  0.00  0.00    -0.309 N 
ATOM     13  N   UNL     1     -27.573   8.668   7.182  0.00  0.00    -0.214 NA
ATOM     14  C   UNL     1     -28.182   9.805   6.827  0.00  0.00    +0.078 A 
ATOM     15  C   UNL     1     -29.504  10.011   7.206  0.00  0.00    +0.028 A 
ATOM     16  C   UNL     1     -30.200  11.173   6.858  0.00  0.00    +0.002 A 
ATOM     17  C   UNL     1     -29.569  12.158   6.108  0.00  0.00    +0.001 A 
ATOM     18  C   UNL     1     -28.245  11.974   5.720  0.00  0.00    +0.013 A 
ATOM     19  C   UNL     1     -27.543  10.799   6.085  0.00  0.00    +0.040 A 
ATOM     20  H   UNL     1     -24.500  11.010   4.959  0.00  0.00    +0.144 HD
ATOM     21  H   UNL     1     -25.399  12.324   5.487  0.00  0.00    +0.144 HD
ATOM     22  H   UNL     1     -24.821   7.276   6.530  0.00  0.00    +0.149 HD
ENDBRANCH   7  12
ENDBRANCH   1   7
BRANCH   5  23
ATOM     23  C   UNL     1     -27.615   2.364  10.275  0.00  0.00    +0.141 C 
BRANCH  23  24
ATOM     24  N   UNL     1     -27.052   1.040   9.938  0.00  0.00    -0.186 NA
ATOM     25  H   UNL     1     -26.165   1.159   9.449  0.00  0.00    +0.148 HD
BRANCH  24  26
ATOM     26  S   UNL     1     -26.812   0.046  11.285  0.00  0.00    +0.059 S 
ATOM     27  O   UNL     1     -25.712   0.600  12.043  0.00  0.00    -0.153 OA
ATOM     28  O   UNL     1     -26.765  -1.316  10.801  0.00  0.00    -0.153 OA
BRANCH  26  29
ATOM     29  C   UNL     1     -28.322   0.306  12.196  0.00  0.00    +0.113 A 
ATOM     30  C   UNL     1     -28.193   0.907  13.461  0.00  0.00    +0.029 A 
ATOM     31  C   UNL     1     -29.319   1.151  14.236  0.00  0.00    +0.003 A 
ATOM     32  C   UNL     1     -30.575   0.800  13.753  0.00  0.00    +0.008 A 
ATOM     33  C   UNL     1     -30.729   0.198  12.493  0.00  0.00    -0.016 A 
ATOM     34  C   UNL     1     -32.021  -0.132  12.050  0.00  0.00    +0.008 A 
ATOM     35  C   UNL     1     -32.227  -0.730  10.809  0.00  0.00    +0.001 A 
ATOM     36  C   UNL     1     -31.139  -1.010   9.996  0.00  0.00    +0.001 A 
ATOM     37  C   UNL     1     -29.848  -0.688  10.423  0.00  0.00    +0.010 A 
ATOM     38  C   UNL     1     -29.597  -0.072  11.680  0.00  0.00    +0.008 A 
ENDBRANCH  26  29
ENDBRANCH  24  26
ENDBRANCH  23  24
ENDBRANCH   5  23
TORSDOF 6
ENDMDL
