MODEL 1
REMARK VINA RESULT:   -13.713      0.000      0.000
REMARK INTER + INTRA:         -19.617
REMARK INTER:                 -18.523
REMARK INTRA:                  -1.094
REMARK UNBOUND:                -1.094
REMARK  Name = CHEMBL36113
REMARK  6 active torsions:
REMARK  status: ('A' for Active; 'I' for Inactive)
REMARK    1  A    between atoms: C_4  and  C_5
REMARK    2  A    between atoms: C_13  and  C_14
REMARK    3  A    between atoms: C_15  and  C_16
REMARK    4  A    between atoms: C_20  and  O_21
REMARK    5  A    between atoms: O_21  and  C_22
REMARK    6  A    between atoms: C_22  and  C_23
REMARK                            x       y       z     vdW  Elec       q    Type
REMARK                         _______ _______ _______ _____ _____    ______ ____
ROOT
ATOM      1  C   UNL     1     -25.361   5.271   8.167  0.00  0.00    +0.008 C 
ATOM      2  C   UNL     1     -25.698   4.699   9.334  0.00  0.00    +0.008 C 
ENDROOT
BRANCH   1  10
ATOM      3  O   UNL     1     -26.968  10.923   5.422  0.00  0.00    -0.287 OA
ATOM      4  C   UNL     1     -27.614  10.120   6.082  0.00  0.00    +0.193 A 
ATOM      5  C   UNL     1     -29.034  10.351   6.381  0.00  0.00    +0.101 A 
ATOM      6  C   UNL     1     -29.717   9.451   7.105  0.00  0.00    +0.180 A 
ATOM      7  O   UNL     1     -29.155   8.282   7.605  0.00  0.00    -0.451 OA
ATOM      8  C   UNL     1     -27.831   8.028   7.354  0.00  0.00    +0.140 A 
ATOM      9  C   UNL     1     -27.301   6.844   7.874  0.00  0.00    +0.055 A 
ATOM     10  C   UNL     1     -25.953   6.518   7.664  0.00  0.00    -0.021 A 
ATOM     11  C   UNL     1     -25.154   7.386   6.903  0.00  0.00    +0.009 A 
ATOM     12  C   UNL     1     -25.685   8.570   6.383  0.00  0.00    +0.016 A 
ATOM     13  C   UNL     1     -27.025   8.885   6.615  0.00  0.00    +0.064 A 
BRANCH   6  14
ATOM     14  C   UNL     1     -31.104   9.609   7.436  0.00  0.00    +0.239 A 
ATOM     15  N   UNL     1     -31.582  10.827   7.861  0.00  0.00    -0.105 NA
ATOM     16  N   UNL     1     -32.878  10.671   8.090  0.00  0.00    -0.048 NA
ATOM     17  N   UNL     1     -33.119   9.388   7.798  0.00  0.00    -0.176 N 
ATOM     18  N   UNL     1     -32.064   8.669   7.386  0.00  0.00    -0.130 NA
ATOM     19  H   UNL     1     -34.049   8.988   7.885  0.00  0.00    +0.214 HD
ENDBRANCH   6  14
ENDBRANCH   1  10
BRANCH   2  20
ATOM     20  C   UNL     1     -25.106   3.450   9.833  0.00  0.00    -0.022 A 
ATOM     21  C   UNL     1     -24.052   3.437  10.753  0.00  0.00    +0.008 A 
ATOM     22  C   UNL     1     -23.538   2.225  11.218  0.00  0.00    +0.004 A 
ATOM     23  C   UNL     1     -24.079   1.014  10.783  0.00  0.00    +0.046 A 
ATOM     24  C   UNL     1     -25.144   1.009   9.883  0.00  0.00    +0.122 A 
ATOM     25  C   UNL     1     -25.651   2.228   9.415  0.00  0.00    +0.053 A 
BRANCH  24  26
ATOM     26  O   UNL     1     -25.768  -0.096   9.372  0.00  0.00    -0.486 OA
BRANCH  26  27
ATOM     27  C   UNL     1     -26.237  -1.093  10.286  0.00  0.00    +0.284 C 
BRANCH  27  28
ATOM     28  C   UNL     1     -27.438  -0.647  11.090  0.00  0.00    +0.079 A 
ATOM     29  C   UNL     1     -28.675  -0.479  10.480  0.00  0.00    +0.027 A 
ATOM     30  C   UNL     1     -29.750  -0.056  11.253  0.00  0.00    +0.012 A 
ATOM     31  C   UNL     1     -29.568   0.197  12.617  0.00  0.00    +0.000 A 
ATOM     32  C   UNL     1     -30.626   0.625  13.438  0.00  0.00    +0.010 A 
ATOM     33  C   UNL     1     -30.412   0.871  14.792  0.00  0.00    +0.001 A 
ATOM     34  C   UNL     1     -29.143   0.688  15.331  0.00  0.00    +0.002 A 
ATOM     35  C   UNL     1     -28.094   0.262  14.510  0.00  0.00    +0.028 A 
ATOM     36  C   UNL     1     -28.279   0.011  13.158  0.00  0.00    +0.071 A 
ATOM     37  N   UNL     1     -27.237  -0.398  12.411  0.00  0.00    -0.248 NA
ENDBRANCH  27  28
ENDBRANCH  26  27
ENDBRANCH  24  26
ENDBRANCH   2  20
TORSDOF 6
ENDMDL
MODEL 2
REMARK VINA RESULT:   -13.472      1.581      2.293
REMARK INTER + INTRA:         -19.291
REMARK INTER:                 -18.216
REMARK INTRA:                  -1.075
REMARK UNBOUND:                -1.094
REMARK  Name = CHEMBL36113
REMARK  6 active torsions:
REMARK  status: ('A' for Active; 'I' for Inactive)
REMARK    1  A    between atoms: C_4  and  C_5
REMARK    2  A    between atoms: C_13  and  C_14
REMARK    3  A    between atoms: C_15  and  C_16
REMARK    4  A    between atoms: C_20  and  O_21
REMARK    5  A    between atoms: O_21  and  C_22
REMARK    6  A    between atoms: C_22  and  C_23
REMARK                            x       y       z     vdW  Elec       q    Type
REMARK                         _______ _______ _______ _____ _____    ______ ____
ROOT
ATOM      1  C   UNL     1     -25.486   4.987   8.579  0.00  0.00    +0.008 C 
ATOM      2  C   UNL     1     -25.973   4.440   9.704  0.00  0.00    +0.008 C 
ENDROOT
BRANCH   1  10
ATOM      3  O   UNL     1     -26.790  10.477   5.381  0.00  0.00    -0.287 OA
ATOM      4  C   UNL     1     -27.482   9.758   6.090  0.00  0.00    +0.193 A 
ATOM      5  C   UNL     1     -28.893  10.076   6.346  0.00  0.00    +0.101 A 
ATOM      6  C   UNL     1     -29.627   9.266   7.126  0.00  0.00    +0.180 A 
ATOM      7  O   UNL     1     -29.127   8.116   7.723  0.00  0.00    -0.451 OA
ATOM      8  C   UNL     1     -27.814   7.782   7.515  0.00  0.00    +0.140 A 
ATOM      9  C   UNL     1     -27.347   6.620   8.133  0.00  0.00    +0.055 A 
ATOM     10  C   UNL     1     -26.012   6.217   7.972  0.00  0.00    -0.021 A 
ATOM     11  C   UNL     1     -25.164   6.986   7.159  0.00  0.00    +0.009 A 
ATOM     12  C   UNL     1     -25.631   8.149   6.541  0.00  0.00    +0.016 A 
ATOM     13  C   UNL     1     -26.958   8.542   6.726  0.00  0.00    +0.064 A 
BRANCH   6  14
ATOM     14  C   UNL     1     -31.009   9.513   7.420  0.00  0.00    +0.239 A 
ATOM     15  N   UNL     1     -31.434  10.779   7.752  0.00  0.00    -0.105 NA
ATOM     16  N   UNL     1     -32.739  10.701   7.968  0.00  0.00    -0.048 NA
ATOM     17  N   UNL     1     -33.038   9.415   7.760  0.00  0.00    -0.176 N 
ATOM     18  N   UNL     1     -32.014   8.619   7.417  0.00  0.00    -0.130 NA
ATOM     19  H   UNL     1     -33.988   9.066   7.858  0.00  0.00    +0.214 HD
ENDBRANCH   6  14
ENDBRANCH   1  10
BRANCH   2  20
ATOM     20  C   UNL     1     -25.446   3.207  10.307  0.00  0.00    -0.022 A 
ATOM     21  C   UNL     1     -24.171   2.714  10.009  0.00  0.00    +0.008 A 
ATOM     22  C   UNL     1     -23.702   1.553  10.625  0.00  0.00    +0.004 A 
ATOM     23  C   UNL     1     -24.494   0.879  11.557  0.00  0.00    +0.046 A 
ATOM     24  C   UNL     1     -25.758   1.368  11.883  0.00  0.00    +0.122 A 
ATOM     25  C   UNL     1     -26.224   2.530  11.256  0.00  0.00    +0.053 A 
BRANCH  24  26
ATOM     26  O   UNL     1     -26.638   0.813  12.770  0.00  0.00    -0.486 OA
BRANCH  26  27
ATOM     27  C   UNL     1     -27.551  -0.179  12.290  0.00  0.00    +0.284 C 
BRANCH  27  28
ATOM     28  C   UNL     1     -28.992   0.284  12.296  0.00  0.00    +0.079 A 
ATOM     29  C   UNL     1     -29.807   0.040  13.394  0.00  0.00    +0.027 A 
ATOM     30  C   UNL     1     -31.128   0.472  13.355  0.00  0.00    +0.012 A 
ATOM     31  C   UNL     1     -31.610   1.131  12.219  0.00  0.00    +0.000 A 
ATOM     32  C   UNL     1     -32.937   1.587  12.135  0.00  0.00    +0.010 A 
ATOM     33  C   UNL     1     -33.387   2.239  10.989  0.00  0.00    +0.001 A 
ATOM     34  C   UNL     1     -32.514   2.439   9.926  0.00  0.00    +0.002 A 
ATOM     35  C   UNL     1     -31.195   1.984  10.014  0.00  0.00    +0.028 A 
ATOM     36  C   UNL     1     -30.720   1.331  11.144  0.00  0.00    +0.071 A 
ATOM     37  N   UNL     1     -29.441   0.914  11.179  0.00  0.00    -0.248 NA
ENDBRANCH  27  28
ENDBRANCH  26  27
ENDBRANCH  24  26
ENDBRANCH   2  20
TORSDOF 6
ENDMDL
