MODEL 1
REMARK VINA RESULT:   -13.039      0.000      0.000
REMARK INTER + INTRA:         -18.929
REMARK INTER:                 -17.613
REMARK INTRA:                  -1.316
REMARK UNBOUND:                -1.316
REMARK  Name = CHEMBL36113
REMARK  6 active torsions:
REMARK  status: ('A' for Active; 'I' for Inactive)
REMARK    1  A    between atoms: C_4  and  C_5
REMARK    2  A    between atoms: C_13  and  C_14
REMARK    3  A    between atoms: C_15  and  C_16
REMARK    4  A    between atoms: C_20  and  O_21
REMARK    5  A    between atoms: O_21  and  C_22
REMARK    6  A    between atoms: C_22  and  C_23
REMARK                            x       y       z     vdW  Elec       q    Type
REMARK                         _______ _______ _______ _____ _____    ______ ____
ROOT
ATOM      1  C   UNL     1     -32.040   5.652   8.958  0.00  0.00    +0.008 C 
ATOM      2  C   UNL     1     -33.181   5.231   9.528  0.00  0.00    +0.008 C 
ENDROOT
BRANCH   1  10
ATOM      3  O   UNL     1     -32.340  11.715   6.674  0.00  0.00    -0.287 OA
ATOM      4  C   UNL     1     -31.407  10.932   6.799  0.00  0.00    +0.193 A 
ATOM      5  C   UNL     1     -30.044  11.306   6.402  0.00  0.00    +0.101 A 
ATOM      6  C   UNL     1     -29.040  10.426   6.553  0.00  0.00    +0.180 A 
ATOM      7  O   UNL     1     -29.211   9.150   7.075  0.00  0.00    -0.451 OA
ATOM      8  C   UNL     1     -30.469   8.756   7.456  0.00  0.00    +0.140 A 
ATOM      9  C   UNL     1     -30.602   7.466   7.975  0.00  0.00    +0.055 A 
ATOM     10  C   UNL     1     -31.858   6.990   8.380  0.00  0.00    -0.021 A 
ATOM     11  C   UNL     1     -32.971   7.839   8.280  0.00  0.00    +0.009 A 
ATOM     12  C   UNL     1     -32.838   9.130   7.760  0.00  0.00    +0.016 A 
ATOM     13  C   UNL     1     -31.583   9.581   7.348  0.00  0.00    +0.064 A 
BRANCH   6  14
ATOM     14  C   UNL     1     -27.685  10.721   6.188  0.00  0.00    +0.239 A 
ATOM     15  N   UNL     1     -26.682   9.818   6.453  0.00  0.00    -0.105 NA
ATOM     16  N   UNL     1     -25.555  10.355   6.010  0.00  0.00    -0.048 NA
ATOM     17  N   UNL     1     -25.922  11.537   5.505  0.00  0.00    -0.176 N 
ATOM     18  N   UNL     1     -27.229  11.831   5.582  0.00  0.00    -0.130 NA
ATOM     19  H   UNL     1     -25.246  12.172   5.090  0.00  0.00    +0.214 HD
ENDBRANCH   6  14
ENDBRANCH   1  10
BRANCH   2  20
ATOM     20  C   UNL     1     -33.360   3.891  10.103  0.00  0.00    -0.022 A 
ATOM     21  C   UNL     1     -34.384   3.597  11.011  0.00  0.00    +0.008 A 
ATOM     22  C   UNL     1     -34.531   2.302  11.511  0.00  0.00    +0.004 A 
ATOM     23  C   UNL     1     -33.669   1.283  11.101  0.00  0.00    +0.046 A 
ATOM     24  C   UNL     1     -32.658   1.553  10.181  0.00  0.00    +0.122 A 
ATOM     25  C   UNL     1     -32.511   2.855   9.687  0.00  0.00    +0.053 A 
BRANCH  24  26
ATOM     26  O   UNL     1     -31.745   0.658   9.695  0.00  0.00    -0.486 OA
BRANCH  26  27
ATOM     27  C   UNL     1     -30.908  -0.032  10.629  0.00  0.00    +0.284 C 
BRANCH  27  28
ATOM     28  C   UNL     1     -29.859   0.858  11.260  0.00  0.00    +0.079 A 
ATOM     29  C   UNL     1     -29.762   0.966  12.642  0.00  0.00    +0.027 A 
ATOM     30  C   UNL     1     -28.792   1.803  13.181  0.00  0.00    +0.012 A 
ATOM     31  C   UNL     1     -27.944   2.521  12.331  0.00  0.00    +0.000 A 
ATOM     32  C   UNL     1     -26.949   3.379  12.831  0.00  0.00    +0.010 A 
ATOM     33  C   UNL     1     -26.121   4.082  11.958  0.00  0.00    +0.001 A 
ATOM     34  C   UNL     1     -26.284   3.929  10.586  0.00  0.00    +0.002 A 
ATOM     35  C   UNL     1     -27.275   3.075  10.093  0.00  0.00    +0.028 A 
ATOM     36  C   UNL     1     -28.114   2.363  10.940  0.00  0.00    +0.071 A 
ATOM     37  N   UNL     1     -29.052   1.553  10.416  0.00  0.00    -0.248 NA
ENDBRANCH  27  28
ENDBRANCH  26  27
ENDBRANCH  24  26
ENDBRANCH   2  20
TORSDOF 6
ENDMDL
MODEL 2
REMARK VINA RESULT:   -12.978      2.888      5.847
REMARK INTER + INTRA:         -18.846
REMARK INTER:                 -17.774
REMARK INTRA:                  -1.072
REMARK UNBOUND:                -1.316
REMARK  Name = CHEMBL36113
REMARK  6 active torsions:
REMARK  status: ('A' for Active; 'I' for Inactive)
REMARK    1  A    between atoms: C_4  and  C_5
REMARK    2  A    between atoms: C_13  and  C_14
REMARK    3  A    between atoms: C_15  and  C_16
REMARK    4  A    between atoms: C_20  and  O_21
REMARK    5  A    between atoms: O_21  and  C_22
REMARK    6  A    between atoms: C_22  and  C_23
REMARK                            x       y       z     vdW  Elec       q    Type
REMARK                         _______ _______ _______ _____ _____    ______ ____
ROOT
ATOM      1  C   UNL     1     -26.365   4.581   9.006  0.00  0.00    +0.008 C 
ATOM      2  C   UNL     1     -25.478   4.493  10.010  0.00  0.00    +0.008 C 
ENDROOT
BRANCH   1  10
ATOM      3  O   UNL     1     -26.712   9.890   5.297  0.00  0.00    -0.287 OA
ATOM      4  C   UNL     1     -27.503   9.389   6.085  0.00  0.00    +0.193 A 
ATOM      5  C   UNL     1     -28.817   9.996   6.332  0.00  0.00    +0.101 A 
ATOM      6  C   UNL     1     -29.665   9.422   7.200  0.00  0.00    +0.180 A 
ATOM      7  O   UNL     1     -29.372   8.259   7.902  0.00  0.00    -0.451 OA
ATOM      8  C   UNL     1     -28.154   7.659   7.706  0.00  0.00    +0.140 A 
ATOM      9  C   UNL     1     -27.896   6.492   8.430  0.00  0.00    +0.055 A 
ATOM     10  C   UNL     1     -26.669   5.827   8.288  0.00  0.00    -0.021 A 
ATOM     11  C   UNL     1     -25.719   6.336   7.388  0.00  0.00    +0.009 A 
ATOM     12  C   UNL     1     -25.978   7.504   6.665  0.00  0.00    +0.016 A 
ATOM     13  C   UNL     1     -27.198   8.161   6.831  0.00  0.00    +0.064 A 
BRANCH   6  14
ATOM     14  C   UNL     1     -30.963   9.957   7.491  0.00  0.00    +0.239 A 
ATOM     15  N   UNL     1     -31.963   9.137   7.961  0.00  0.00    -0.105 NA
ATOM     16  N   UNL     1     -33.033   9.900   8.136  0.00  0.00    -0.048 NA
ATOM     17  N   UNL     1     -32.637  11.124   7.772  0.00  0.00    -0.176 N 
ATOM     18  N   UNL     1     -31.365  11.234   7.360  0.00  0.00    -0.130 NA
ATOM     19  H   UNL     1     -33.268  11.920   7.806  0.00  0.00    +0.214 HD
ENDBRANCH   6  14
ENDBRANCH   1  10
BRANCH   2  20
ATOM     20  C   UNL     1     -25.179   3.246  10.728  0.00  0.00    -0.022 A 
ATOM     21  C   UNL     1     -23.879   2.739  10.838  0.00  0.00    +0.008 A 
ATOM     22  C   UNL     1     -23.639   1.565  11.552  0.00  0.00    +0.004 A 
ATOM     23  C   UNL     1     -24.690   0.890  12.177  0.00  0.00    +0.046 A 
ATOM     24  C   UNL     1     -25.988   1.392  12.096  0.00  0.00    +0.122 A 
ATOM     25  C   UNL     1     -26.223   2.568  11.373  0.00  0.00    +0.053 A 
BRANCH  24  26
ATOM     26  O   UNL     1     -27.107   0.838  12.653  0.00  0.00    -0.486 OA
BRANCH  26  27
ATOM     27  C   UNL     1     -27.977   0.073  11.810  0.00  0.00    +0.284 C 
BRANCH  27  28
ATOM     28  C   UNL     1     -29.426   0.494  11.911  0.00  0.00    +0.079 A 
ATOM     29  C   UNL     1     -30.204   0.096  12.991  0.00  0.00    +0.027 A 
ATOM     30  C   UNL     1     -31.535   0.494  13.040  0.00  0.00    +0.012 A 
ATOM     31  C   UNL     1     -32.064   1.276  12.007  0.00  0.00    +0.000 A 
ATOM     32  C   UNL     1     -33.404   1.704  12.015  0.00  0.00    +0.010 A 
ATOM     33  C   UNL     1     -33.902   2.480  10.970  0.00  0.00    +0.001 A 
ATOM     34  C   UNL     1     -33.064   2.832   9.918  0.00  0.00    +0.002 A 
ATOM     35  C   UNL     1     -31.733   2.404   9.915  0.00  0.00    +0.028 A 
ATOM     36  C   UNL     1     -31.211   1.630  10.942  0.00  0.00    +0.071 A 
ATOM     37  N   UNL     1     -29.922   1.245  10.893  0.00  0.00    -0.248 NA
ENDBRANCH  27  28
ENDBRANCH  26  27
ENDBRANCH  24  26
ENDBRANCH   2  20
TORSDOF 6
ENDMDL
MODEL 3
REMARK VINA RESULT:   -12.825      4.282      8.727
REMARK INTER + INTRA:         -18.640
REMARK INTER:                 -17.404
REMARK INTRA:                  -1.235
REMARK UNBOUND:                -1.316
REMARK  Name = CHEMBL36113
REMARK  6 active torsions:
REMARK  status: ('A' for Active; 'I' for Inactive)
REMARK    1  A    between atoms: C_4  and  C_5
REMARK    2  A    between atoms: C_13  and  C_14
REMARK    3  A    between atoms: C_15  and  C_16
REMARK    4  A    between atoms: C_20  and  O_21
REMARK    5  A    between atoms: O_21  and  C_22
REMARK    6  A    between atoms: C_22  and  C_23
REMARK                            x       y       z     vdW  Elec       q    Type
REMARK                         _______ _______ _______ _____ _____    ______ ____
ROOT
ATOM      1  C   UNL     1     -31.111   7.469   7.860  0.00  0.00    +0.008 C 
ATOM      2  C   UNL     1     -31.465   8.751   7.672  0.00  0.00    +0.008 C 
ENDROOT
BRANCH   1  10
ATOM      3  O   UNL     1     -33.978   2.499  10.883  0.00  0.00    -0.287 OA
ATOM      4  C   UNL     1     -34.426   3.525  10.388  0.00  0.00    +0.193 A 
ATOM      5  C   UNL     1     -35.865   3.816  10.417  0.00  0.00    +0.101 A 
ATOM      6  C   UNL     1     -36.327   4.951   9.869  0.00  0.00    +0.180 A 
ATOM      7  O   UNL     1     -35.510   5.895   9.257  0.00  0.00    -0.451 OA
ATOM      8  C   UNL     1     -34.160   5.662   9.203  0.00  0.00    +0.140 A 
ATOM      9  C   UNL     1     -33.371   6.633   8.580  0.00  0.00    +0.055 A 
ATOM     10  C   UNL     1     -31.982   6.462   8.480  0.00  0.00    -0.021 A 
ATOM     11  C   UNL     1     -31.397   5.315   9.040  0.00  0.00    +0.009 A 
ATOM     12  C   UNL     1     -32.186   4.344   9.663  0.00  0.00    +0.016 A 
ATOM     13  C   UNL     1     -33.568   4.525   9.739  0.00  0.00    +0.064 A 
BRANCH   6  14
ATOM     14  C   UNL     1     -37.717   5.302   9.859  0.00  0.00    +0.239 A 
ATOM     15  N   UNL     1     -38.114   6.558   9.461  0.00  0.00    -0.105 NA
ATOM     16  N   UNL     1     -39.435   6.590   9.556  0.00  0.00    -0.048 NA
ATOM     17  N   UNL     1     -39.771   5.374   9.998  0.00  0.00    -0.176 N 
ATOM     18  N   UNL     1     -38.755   4.522  10.208  0.00  0.00    -0.130 NA
ATOM     19  H   UNL     1     -40.740   5.116  10.164  0.00  0.00    +0.214 HD
ENDBRANCH   6  14
ENDBRANCH   1  10
BRANCH   2  20
ATOM     20  C   UNL     1     -30.590   9.757   7.054  0.00  0.00    -0.022 A 
ATOM     21  C   UNL     1     -31.017  11.066   6.801  0.00  0.00    +0.008 A 
ATOM     22  C   UNL     1     -30.143  11.995   6.235  0.00  0.00    +0.004 A 
ATOM     23  C   UNL     1     -28.829  11.634   5.929  0.00  0.00    +0.046 A 
ATOM     24  C   UNL     1     -28.381  10.342   6.195  0.00  0.00    +0.122 A 
ATOM     25  C   UNL     1     -29.264   9.412   6.756  0.00  0.00    +0.053 A 
BRANCH  24  26
ATOM     26  O   UNL     1     -27.128   9.852   5.946  0.00  0.00    -0.486 OA
BRANCH  26  27
ATOM     27  C   UNL     1     -27.003   8.487   5.531  0.00  0.00    +0.284 C 
BRANCH  27  28
ATOM     28  C   UNL     1     -26.498   7.575   6.628  0.00  0.00    +0.079 A 
ATOM     29  C   UNL     1     -25.215   7.727   7.138  0.00  0.00    +0.027 A 
ATOM     30  C   UNL     1     -24.785   6.861   8.137  0.00  0.00    +0.012 A 
ATOM     31  C   UNL     1     -25.642   5.856   8.601  0.00  0.00    +0.000 A 
ATOM     32  C   UNL     1     -25.251   4.958   9.610  0.00  0.00    +0.010 A 
ATOM     33  C   UNL     1     -26.127   3.967  10.049  0.00  0.00    +0.001 A 
ATOM     34  C   UNL     1     -27.394   3.872   9.483  0.00  0.00    +0.002 A 
ATOM     35  C   UNL     1     -27.777   4.767   8.480  0.00  0.00    +0.028 A 
ATOM     36  C   UNL     1     -26.925   5.763   8.024  0.00  0.00    +0.071 A 
ATOM     37  N   UNL     1     -27.343   6.601   7.057  0.00  0.00    -0.248 NA
ENDBRANCH  27  28
ENDBRANCH  26  27
ENDBRANCH  24  26
ENDBRANCH   2  20
TORSDOF 6
ENDMDL
