MODEL 1
REMARK VINA RESULT:   -10.318      0.000      0.000
REMARK INTER + INTRA:         -15.856
REMARK INTER:                 -14.540
REMARK INTRA:                  -1.316
REMARK UNBOUND:                -1.316
REMARK  Name = CHEMBL25527
REMARK  9 active torsions:
REMARK  status: ('A' for Active; 'I' for Inactive)
REMARK    1  A    between atoms: C_1  and  C_2
REMARK    2  A    between atoms: C_2  and  C_3
REMARK    3  A    between atoms: C_7  and  O_8
REMARK    4  A    between atoms: O_8  and  C_9
REMARK    5  A    between atoms: C_13  and  C_14
REMARK    6  A    between atoms: N_21  and  C_22
REMARK    7  A    between atoms: C_22  and  C_23
REMARK    8  A    between atoms: C_27  and  C_28
REMARK    9  A    between atoms: C_32  and  C_33
REMARK                            x       y       z     vdW  Elec       q    Type
REMARK                         _______ _______ _______ _____ _____    ______ ____
ROOT
ATOM      1  C   UNL     1      22.989  10.991 -12.804  0.00  0.00    +0.111 A 
ATOM      2  N   UNL     1      22.463  10.489 -11.703  0.00  0.00    -0.232 NA
ATOM      3  C   UNL     1      22.474   9.129 -11.860  0.00  0.00    +0.093 A 
ATOM      4  C   UNL     1      22.023   8.132 -10.978  0.00  0.00    +0.075 A 
ATOM      5  C   UNL     1      22.133   6.792 -11.357  0.00  0.00    +0.123 A 
ATOM      6  C   UNL     1      22.690   6.463 -12.598  0.00  0.00    +0.048 A 
ATOM      7  C   UNL     1      23.148   7.440 -13.490  0.00  0.00    +0.031 A 
ATOM      8  C   UNL     1      23.023   8.773 -13.087  0.00  0.00    +0.069 A 
ATOM      9  N   UNL     1      23.350   9.979 -13.672  0.00  0.00    -0.323 N 
ENDROOT
BRANCH   1  11
ATOM     10  C   UNL     1      24.548  12.950 -12.596  0.00  0.00    +0.012 C 
ATOM     11  C   UNL     1      23.199  12.446 -13.087  0.00  0.00    +0.071 C 
ENDBRANCH   1  11
BRANCH   5  12
ATOM     12  O   UNL     1      21.738   5.709 -10.619  0.00  0.00    -0.489 OA
BRANCH  12  13
ATOM     13  C   UNL     1      20.352   5.555 -10.280  0.00  0.00    +0.176 C 
ATOM     14  C   UNL     1      20.219   5.891  -8.789  0.00  0.00    +0.063 C 
ATOM     15  C   UNL     1      20.368   4.648  -7.921  0.00  0.00    +0.110 C 
ATOM     16  N   UNL     1      19.322   3.675  -8.235  0.00  0.00    -0.319 N 
ATOM     17  C   UNL     1      18.774   2.818  -7.296  0.00  0.00    +0.086 C 
ATOM     18  C   UNL     1      19.373   2.727  -5.907  0.00  0.00    +0.082 C 
ATOM     19  N   UNL     1      17.735   2.093  -7.573  0.00  0.00    -0.290 NA
ATOM     20  C   UNL     1      18.825   3.653  -9.616  0.00  0.00    +0.110 C 
ATOM     21  C   UNL     1      19.901   4.122 -10.583  0.00  0.00    +0.063 C 
ATOM     22  H   UNL     1      17.457   1.530  -6.765  0.00  0.00    +0.188 HD
ENDBRANCH  12  13
ENDBRANCH   5  12
BRANCH   9  23
ATOM     23  C   UNL     1      23.926  10.145 -15.000  0.00  0.00    +0.158 C 
BRANCH  23  24
ATOM     24  C   UNL     1      22.886  10.445 -16.053  0.00  0.00    -0.027 A 
ATOM     25  C   UNL     1      21.518  10.420 -15.753  0.00  0.00    +0.005 A 
ATOM     26  C   UNL     1      20.574  10.714 -16.736  0.00  0.00    +0.001 A 
ATOM     27  C   UNL     1      20.987  11.046 -18.027  0.00  0.00    +0.008 A 
ATOM     28  C   UNL     1      22.349  11.092 -18.360  0.00  0.00    -0.018 A 
ATOM     29  C   UNL     1      23.286  10.793 -17.355  0.00  0.00    +0.014 A 
BRANCH  28  30
ATOM     30  C   UNL     1      22.786  11.440 -19.722  0.00  0.00    -0.017 A 
ATOM     31  C   UNL     1      21.872  11.914 -20.678  0.00  0.00    +0.008 A 
ATOM     32  C   UNL     1      22.286  12.252 -21.970  0.00  0.00    +0.001 A 
ATOM     33  C   UNL     1      23.626  12.127 -22.329  0.00  0.00    +0.011 A 
ATOM     34  C   UNL     1      24.552  11.661 -21.393  0.00  0.00    +0.014 A 
ATOM     35  C   UNL     1      24.133  11.315 -20.101  0.00  0.00    +0.019 A 
BRANCH  34  36
ATOM     36  C   UNL     1      25.985  11.512 -21.758  0.00  0.00    +0.116 C 
ATOM     37  N   UNL     1      26.882  11.107 -20.917  0.00  0.00    -0.285 NA
ATOM     38  N   UNL     1      26.407  11.809 -23.019  0.00  0.00    -0.343 N 
ATOM     39  H   UNL     1      26.463  10.864 -20.015  0.00  0.00    +0.188 HD
ATOM     40  H   UNL     1      25.961  12.609 -23.455  0.00  0.00    +0.144 HD
ATOM     41  H   UNL     1      27.421  11.867 -23.053  0.00  0.00    +0.144 HD
ENDBRANCH  34  36
ENDBRANCH  28  30
ENDBRANCH  23  24
ENDBRANCH   9  23
TORSDOF 7
ENDMDL
MODEL 2
REMARK VINA RESULT:    -9.832      1.922      2.120
REMARK INTER + INTRA:         -15.171
REMARK INTER:                 -13.547
REMARK INTRA:                  -1.624
REMARK UNBOUND:                -1.316
REMARK  Name = CHEMBL25527
REMARK  9 active torsions:
REMARK  status: ('A' for Active; 'I' for Inactive)
REMARK    1  A    between atoms: C_1  and  C_2
REMARK    2  A    between atoms: C_2  and  C_3
REMARK    3  A    between atoms: C_7  and  O_8
REMARK    4  A    between atoms: O_8  and  C_9
REMARK    5  A    between atoms: C_13  and  C_14
REMARK    6  A    between atoms: N_21  and  C_22
REMARK    7  A    between atoms: C_22  and  C_23
REMARK    8  A    between atoms: C_27  and  C_28
REMARK    9  A    between atoms: C_32  and  C_33
REMARK                            x       y       z     vdW  Elec       q    Type
REMARK                         _______ _______ _______ _____ _____    ______ ____
ROOT
ATOM      1  C   UNL     1      23.226  11.225 -13.453  0.00  0.00    +0.111 A 
ATOM      2  N   UNL     1      22.803  10.806 -12.276  0.00  0.00    -0.232 NA
ATOM      3  C   UNL     1      22.751   9.439 -12.354  0.00  0.00    +0.093 A 
ATOM      4  C   UNL     1      22.362   8.512 -11.373  0.00  0.00    +0.075 A 
ATOM      5  C   UNL     1      22.385   7.150 -11.682  0.00  0.00    +0.123 A 
ATOM      6  C   UNL     1      22.795   6.731 -12.953  0.00  0.00    +0.048 A 
ATOM      7  C   UNL     1      23.189   7.639 -13.944  0.00  0.00    +0.031 A 
ATOM      8  C   UNL     1      23.153   8.996 -13.608  0.00  0.00    +0.069 A 
ATOM      9  N   UNL     1      23.457  10.154 -14.294  0.00  0.00    -0.323 N 
ENDROOT
BRANCH   1  11
ATOM     10  C   UNL     1      24.585  13.300 -13.056  0.00  0.00    +0.012 C 
ATOM     11  C   UNL     1      23.454  12.653 -13.842  0.00  0.00    +0.071 C 
ENDBRANCH   1  11
BRANCH   5  12
ATOM     12  O   UNL     1      22.035   6.125 -10.845  0.00  0.00    -0.489 OA
BRANCH  12  13
ATOM     13  C   UNL     1      20.646   5.812 -10.657  0.00  0.00    +0.176 C 
ATOM     14  C   UNL     1      20.300   6.175  -9.208  0.00  0.00    +0.063 C 
ATOM     15  C   UNL     1      20.494   4.986  -8.274  0.00  0.00    +0.110 C 
ATOM     16  N   UNL     1      19.614   3.883  -8.659  0.00  0.00    -0.319 N 
ATOM     17  C   UNL     1      19.065   2.995  -7.751  0.00  0.00    +0.086 C 
ATOM     18  C   UNL     1      19.504   3.021  -6.300  0.00  0.00    +0.082 C 
ATOM     19  N   UNL     1      18.159   2.140  -8.111  0.00  0.00    -0.290 NA
ATOM     20  C   UNL     1      19.289   3.758 -10.086  0.00  0.00    +0.110 C 
ATOM     21  C   UNL     1      20.407   4.326 -10.945  0.00  0.00    +0.063 C 
ATOM     22  H   UNL     1      17.858   1.571  -7.314  0.00  0.00    +0.188 HD
ENDBRANCH  12  13
ENDBRANCH   5  12
BRANCH   9  23
ATOM     23  C   UNL     1      23.893  10.224 -15.683  0.00  0.00    +0.158 C 
BRANCH  23  24
ATOM     24  C   UNL     1      22.752  10.468 -16.640  0.00  0.00    -0.027 A 
ATOM     25  C   UNL     1      21.691   9.561 -16.755  0.00  0.00    +0.005 A 
ATOM     26  C   UNL     1      20.639   9.813 -17.635  0.00  0.00    +0.001 A 
ATOM     27  C   UNL     1      20.631  10.978 -18.402  0.00  0.00    +0.008 A 
ATOM     28  C   UNL     1      21.671  11.914 -18.305  0.00  0.00    -0.018 A 
ATOM     29  C   UNL     1      22.723  11.643 -17.412  0.00  0.00    +0.014 A 
BRANCH  28  30
ATOM     30  C   UNL     1      21.666  13.142 -19.117  0.00  0.00    -0.017 A 
ATOM     31  C   UNL     1      20.468  13.662 -19.637  0.00  0.00    +0.008 A 
ATOM     32  C   UNL     1      20.459  14.832 -20.402  0.00  0.00    +0.001 A 
ATOM     33  C   UNL     1      21.649  15.509 -20.656  0.00  0.00    +0.011 A 
ATOM     34  C   UNL     1      22.851  15.011 -20.146  0.00  0.00    +0.014 A 
ATOM     35  C   UNL     1      22.858  13.833 -19.387  0.00  0.00    +0.019 A 
BRANCH  34  36
ATOM     36  C   UNL     1      24.133  15.713 -20.413  0.00  0.00    +0.116 C 
ATOM     37  N   UNL     1      24.546  15.983 -21.611  0.00  0.00    -0.285 NA
ATOM     38  N   UNL     1      24.934  16.098 -19.380  0.00  0.00    -0.343 N 
ATOM     39  H   UNL     1      23.857  15.699 -22.314  0.00  0.00    +0.188 HD
ATOM     40  H   UNL     1      24.982  15.456 -18.598  0.00  0.00    +0.144 HD
ATOM     41  H   UNL     1      25.855  16.362 -19.720  0.00  0.00    +0.144 HD
ENDBRANCH  34  36
ENDBRANCH  28  30
ENDBRANCH  23  24
ENDBRANCH   9  23
TORSDOF 7
ENDMDL
MODEL 3
REMARK VINA RESULT:    -9.625      4.895      8.930
REMARK INTER + INTRA:         -14.880
REMARK INTER:                 -14.442
REMARK INTRA:                  -0.438
REMARK UNBOUND:                -1.316
REMARK  Name = CHEMBL25527
REMARK  9 active torsions:
REMARK  status: ('A' for Active; 'I' for Inactive)
REMARK    1  A    between atoms: C_1  and  C_2
REMARK    2  A    between atoms: C_2  and  C_3
REMARK    3  A    between atoms: C_7  and  O_8
REMARK    4  A    between atoms: O_8  and  C_9
REMARK    5  A    between atoms: C_13  and  C_14
REMARK    6  A    between atoms: N_21  and  C_22
REMARK    7  A    between atoms: C_22  and  C_23
REMARK    8  A    between atoms: C_27  and  C_28
REMARK    9  A    between atoms: C_32  and  C_33
REMARK                            x       y       z     vdW  Elec       q    Type
REMARK                         _______ _______ _______ _____ _____    ______ ____
ROOT
ATOM      1  C   UNL     1      19.003   3.414  -8.768  0.00  0.00    +0.111 A 
ATOM      2  N   UNL     1      18.061   2.777  -9.437  0.00  0.00    -0.232 NA
ATOM      3  C   UNL     1      18.110   3.259 -10.718  0.00  0.00    +0.093 A 
ATOM      4  C   UNL     1      17.317   2.912 -11.824  0.00  0.00    +0.075 A 
ATOM      5  C   UNL     1      17.548   3.545 -13.048  0.00  0.00    +0.123 A 
ATOM      6  C   UNL     1      18.561   4.505 -13.155  0.00  0.00    +0.048 A 
ATOM      7  C   UNL     1      19.364   4.863 -12.066  0.00  0.00    +0.031 A 
ATOM      8  C   UNL     1      19.109   4.216 -10.852  0.00  0.00    +0.069 A 
ATOM      9  N   UNL     1      19.670   4.296  -9.595  0.00  0.00    -0.323 N 
ENDROOT
BRANCH   1  11
ATOM     10  C   UNL     1      18.546   2.074  -6.692  0.00  0.00    +0.012 C 
ATOM     11  C   UNL     1      19.339   3.210  -7.323  0.00  0.00    +0.071 C 
ENDBRANCH   1  11
BRANCH   5  12
ATOM     12  O   UNL     1      16.864   3.325 -14.213  0.00  0.00    -0.489 OA
BRANCH  12  13
ATOM     13  C   UNL     1      16.045   4.371 -14.758  0.00  0.00    +0.176 C 
ATOM     14  C   UNL     1      14.589   4.008 -14.441  0.00  0.00    +0.063 C 
ATOM     15  C   UNL     1      13.959   3.196 -15.566  0.00  0.00    +0.110 C 
ATOM     16  N   UNL     1      13.946   3.967 -16.809  0.00  0.00    -0.319 N 
ATOM     17  C   UNL     1      12.954   3.849 -17.766  0.00  0.00    +0.086 C 
ATOM     18  C   UNL     1      11.905   2.761 -17.646  0.00  0.00    +0.082 C 
ATOM     19  N   UNL     1      12.887   4.669 -18.769  0.00  0.00    -0.290 NA
ATOM     20  C   UNL     1      15.036   4.930 -17.007  0.00  0.00    +0.110 C 
ATOM     21  C   UNL     1      16.288   4.487 -16.267  0.00  0.00    +0.063 C 
ATOM     22  H   UNL     1      12.089   4.444 -19.371  0.00  0.00    +0.188 HD
ENDBRANCH  12  13
ENDBRANCH   5  12
BRANCH   9  23
ATOM     23  C   UNL     1      20.745   5.200  -9.205  0.00  0.00    +0.158 C 
BRANCH  23  24
ATOM     24  C   UNL     1      21.556   5.684 -10.383  0.00  0.00    -0.027 A 
ATOM     25  C   UNL     1      22.364   4.809 -11.120  0.00  0.00    +0.005 A 
ATOM     26  C   UNL     1      23.093   5.274 -12.214  0.00  0.00    +0.001 A 
ATOM     27  C   UNL     1      23.016   6.615 -12.589  0.00  0.00    +0.008 A 
ATOM     28  C   UNL     1      22.208   7.518 -11.881  0.00  0.00    -0.018 A 
ATOM     29  C   UNL     1      21.480   7.030 -10.781  0.00  0.00    +0.014 A 
BRANCH  28  30
ATOM     30  C   UNL     1      22.127   8.934 -12.274  0.00  0.00    -0.017 A 
ATOM     31  C   UNL     1      21.092   9.398 -13.102  0.00  0.00    +0.008 A 
ATOM     32  C   UNL     1      21.008  10.745 -13.471  0.00  0.00    +0.001 A 
ATOM     33  C   UNL     1      21.959  11.654 -13.012  0.00  0.00    +0.011 A 
ATOM     34  C   UNL     1      22.995  11.214 -12.185  0.00  0.00    +0.014 A 
ATOM     35  C   UNL     1      23.081   9.862 -11.824  0.00  0.00    +0.019 A 
BRANCH  34  36
ATOM     36  C   UNL     1      24.024  12.165 -11.693  0.00  0.00    +0.116 C 
ATOM     37  N   UNL     1      24.223  13.323 -12.237  0.00  0.00    -0.285 NA
ATOM     38  N   UNL     1      24.810  11.837 -10.629  0.00  0.00    -0.343 N 
ATOM     39  H   UNL     1      23.556  13.498 -12.994  0.00  0.00    +0.188 HD
ATOM     40  H   UNL     1      25.102  10.868 -10.581  0.00  0.00    +0.144 HD
ATOM     41  H   UNL     1      25.593  12.480 -10.551  0.00  0.00    +0.144 HD
ENDBRANCH  34  36
ENDBRANCH  28  30
ENDBRANCH  23  24
ENDBRANCH   9  23
TORSDOF 7
ENDMDL
