MODEL 1
REMARK VINA RESULT:   -12.610      0.000      0.000
REMARK INTER + INTRA:         -19.499
REMARK INTER:                 -17.770
REMARK INTRA:                  -1.729
REMARK UNBOUND:                -1.729
REMARK  Name = CHEMBL25527
REMARK  9 active torsions:
REMARK  status: ('A' for Active; 'I' for Inactive)
REMARK    1  A    between atoms: C_1  and  C_2
REMARK    2  A    between atoms: C_2  and  C_3
REMARK    3  A    between atoms: C_7  and  O_8
REMARK    4  A    between atoms: O_8  and  C_9
REMARK    5  A    between atoms: C_13  and  C_14
REMARK    6  A    between atoms: N_21  and  C_22
REMARK    7  A    between atoms: C_22  and  C_23
REMARK    8  A    between atoms: C_27  and  C_28
REMARK    9  A    between atoms: C_32  and  C_33
REMARK                            x       y       z     vdW  Elec       q    Type
REMARK                         _______ _______ _______ _____ _____    ______ ____
ROOT
ATOM      1  C   UNL     1      -7.626 -13.399 -52.542  0.00  0.00    +0.111 A 
ATOM      2  N   UNL     1      -7.028 -12.454 -51.841  0.00  0.00    -0.232 NA
ATOM      3  C   UNL     1      -5.693 -12.756 -51.856  0.00  0.00    +0.093 A 
ATOM      4  C   UNL     1      -4.623 -12.069 -51.257  0.00  0.00    +0.075 A 
ATOM      5  C   UNL     1      -3.328 -12.571 -51.405  0.00  0.00    +0.123 A 
ATOM      6  C   UNL     1      -3.115 -13.740 -52.145  0.00  0.00    +0.048 A 
ATOM      7  C   UNL     1      -4.165 -14.438 -52.752  0.00  0.00    +0.031 A 
ATOM      8  C   UNL     1      -5.452 -13.915 -52.586  0.00  0.00    +0.069 A 
ATOM      9  N   UNL     1      -6.701 -14.306 -53.019  0.00  0.00    -0.323 N 
ENDROOT
BRANCH   1  11
ATOM     10  C   UNL     1      -9.907 -13.806 -51.568  0.00  0.00    +0.012 C 
ATOM     11  C   UNL     1      -9.096 -13.485 -52.816  0.00  0.00    +0.071 C 
ENDBRANCH   1  11
BRANCH   5  12
ATOM     12  O   UNL     1      -2.186 -12.026 -50.882  0.00  0.00    -0.489 OA
BRANCH  12  13
ATOM     13  C   UNL     1      -1.192 -12.889 -50.310  0.00  0.00    +0.176 C 
ATOM     14  C   UNL     1      -1.721 -13.328 -48.939  0.00  0.00    +0.063 C 
ATOM     15  C   UNL     1      -1.259 -12.385 -47.834  0.00  0.00    +0.110 C 
ATOM     16  N   UNL     1       0.202 -12.376 -47.746  0.00  0.00    -0.319 N 
ATOM     17  C   UNL     1       0.890 -12.197 -46.559  0.00  0.00    +0.086 C 
ATOM     18  C   UNL     1       0.144 -11.817 -45.295  0.00  0.00    +0.082 C 
ATOM     19  N   UNL     1       2.175 -12.365 -46.496  0.00  0.00    -0.290 NA
ATOM     20  C   UNL     1       0.946 -12.604 -48.991  0.00  0.00    +0.110 C 
ATOM     21  C   UNL     1       0.139 -12.139 -50.193  0.00  0.00    +0.063 C 
ATOM     22  H   UNL     1       2.517 -12.204 -45.544  0.00  0.00    +0.188 HD
ENDBRANCH  12  13
ENDBRANCH   5  12
BRANCH   9  23
ATOM     23  C   UNL     1      -6.989 -15.504 -53.799  0.00  0.00    +0.158 C 
BRANCH  23  24
ATOM     24  C   UNL     1      -6.893 -15.267 -55.286  0.00  0.00    -0.027 A 
ATOM     25  C   UNL     1      -7.936 -14.655 -55.995  0.00  0.00    +0.005 A 
ATOM     26  C   UNL     1      -7.821 -14.432 -57.366  0.00  0.00    +0.001 A 
ATOM     27  C   UNL     1      -6.662 -14.810 -58.043  0.00  0.00    +0.008 A 
ATOM     28  C   UNL     1      -5.593 -15.415 -57.364  0.00  0.00    -0.018 A 
ATOM     29  C   UNL     1      -5.727 -15.631 -55.981  0.00  0.00    +0.014 A 
BRANCH  28  30
ATOM     30  C   UNL     1      -4.370 -15.816 -58.078  0.00  0.00    -0.017 A 
ATOM     31  C   UNL     1      -4.111 -15.365 -59.383  0.00  0.00    +0.008 A 
ATOM     32  C   UNL     1      -2.946 -15.738 -60.061  0.00  0.00    +0.001 A 
ATOM     33  C   UNL     1      -2.014 -16.568 -59.442  0.00  0.00    +0.011 A 
ATOM     34  C   UNL     1      -2.251 -17.026 -58.143  0.00  0.00    +0.014 A 
ATOM     35  C   UNL     1      -3.423 -16.657 -57.470  0.00  0.00    +0.019 A 
BRANCH  34  36
ATOM     36  C   UNL     1      -1.274 -17.919 -57.468  0.00  0.00    +0.116 C 
ATOM     37  N   UNL     1      -0.269 -17.469 -56.787  0.00  0.00    -0.285 NA
ATOM     38  N   UNL     1      -1.410 -19.273 -57.551  0.00  0.00    -0.343 N 
ATOM     39  H   UNL     1      -0.279 -16.446 -56.742  0.00  0.00    +0.188 HD
ATOM     40  H   UNL     1      -1.730 -19.628 -58.445  0.00  0.00    +0.144 HD
ATOM     41  H   UNL     1      -0.564 -19.737 -57.232  0.00  0.00    +0.144 HD
ENDBRANCH  34  36
ENDBRANCH  28  30
ENDBRANCH  23  24
ENDBRANCH   9  23
TORSDOF 7
ENDMDL
MODEL 2
REMARK VINA RESULT:   -11.487      4.152     11.165
REMARK INTER + INTRA:         -17.917
REMARK INTER:                 -17.203
REMARK INTRA:                  -0.714
REMARK UNBOUND:                -1.729
REMARK  Name = CHEMBL25527
REMARK  9 active torsions:
REMARK  status: ('A' for Active; 'I' for Inactive)
REMARK    1  A    between atoms: C_1  and  C_2
REMARK    2  A    between atoms: C_2  and  C_3
REMARK    3  A    between atoms: C_7  and  O_8
REMARK    4  A    between atoms: O_8  and  C_9
REMARK    5  A    between atoms: C_13  and  C_14
REMARK    6  A    between atoms: N_21  and  C_22
REMARK    7  A    between atoms: C_22  and  C_23
REMARK    8  A    between atoms: C_27  and  C_28
REMARK    9  A    between atoms: C_32  and  C_33
REMARK                            x       y       z     vdW  Elec       q    Type
REMARK                         _______ _______ _______ _____ _____    ______ ____
ROOT
ATOM      1  C   UNL     1      -7.519 -14.419 -53.333  0.00  0.00    +0.111 A 
ATOM      2  N   UNL     1      -8.625 -14.402 -54.053  0.00  0.00    -0.232 NA
ATOM      3  C   UNL     1      -8.242 -14.646 -55.345  0.00  0.00    +0.093 A 
ATOM      4  C   UNL     1      -9.036 -14.730 -56.502  0.00  0.00    +0.075 A 
ATOM      5  C   UNL     1      -8.420 -14.986 -57.729  0.00  0.00    +0.123 A 
ATOM      6  C   UNL     1      -7.032 -15.158 -57.788  0.00  0.00    +0.048 A 
ATOM      7  C   UNL     1      -6.223 -15.081 -56.647  0.00  0.00    +0.031 A 
ATOM      8  C   UNL     1      -6.866 -14.820 -55.433  0.00  0.00    +0.069 A 
ATOM      9  N   UNL     1      -6.424 -14.676 -54.135  0.00  0.00    -0.323 N 
ENDROOT
BRANCH   1  11
ATOM     10  C   UNL     1      -8.132 -15.319 -51.069  0.00  0.00    +0.012 C 
ATOM     11  C   UNL     1      -7.438 -14.214 -51.852  0.00  0.00    +0.071 C 
ENDBRANCH   1  11
BRANCH   5  12
ATOM     12  O   UNL     1      -9.046 -15.093 -58.941  0.00  0.00    -0.489 OA
BRANCH  12  13
ATOM     13  C   UNL     1     -10.463 -15.322 -58.984  0.00  0.00    +0.176 C 
ATOM     14  C   UNL     1     -10.673 -16.836 -58.863  0.00  0.00    +0.063 C 
ATOM     15  C   UNL     1     -10.720 -17.505 -60.232  0.00  0.00    +0.110 C 
ATOM     16  N   UNL     1     -11.836 -16.981 -61.020  0.00  0.00    -0.319 N 
ATOM     17  C   UNL     1     -12.539 -17.739 -61.939  0.00  0.00    +0.086 C 
ATOM     18  C   UNL     1     -12.059 -19.129 -62.306  0.00  0.00    +0.082 C 
ATOM     19  N   UNL     1     -13.624 -17.290 -62.490  0.00  0.00    -0.290 NA
ATOM     20  C   UNL     1     -12.226 -15.586 -60.777  0.00  0.00    +0.110 C 
ATOM     21  C   UNL     1     -11.036 -14.770 -60.294  0.00  0.00    +0.063 C 
ATOM     22  H   UNL     1     -14.019 -17.982 -63.133  0.00  0.00    +0.188 HD
ENDBRANCH  12  13
ENDBRANCH   5  12
BRANCH   9  23
ATOM     23  C   UNL     1      -5.033 -14.733 -53.704  0.00  0.00    +0.158 C 
BRANCH  23  24
ATOM     24  C   UNL     1      -4.619 -13.518 -52.909  0.00  0.00    -0.027 A 
ATOM     25  C   UNL     1      -5.143 -12.249 -53.191  0.00  0.00    +0.005 A 
ATOM     26  C   UNL     1      -4.758 -11.143 -52.435  0.00  0.00    +0.001 A 
ATOM     27  C   UNL     1      -3.854 -11.293 -51.384  0.00  0.00    +0.008 A 
ATOM     28  C   UNL     1      -3.318 -12.549 -51.065  0.00  0.00    -0.018 A 
ATOM     29  C   UNL     1      -3.718 -13.654 -51.839  0.00  0.00    +0.014 A 
BRANCH  28  30
ATOM     30  C   UNL     1      -2.362 -12.708 -49.958  0.00  0.00    -0.017 A 
ATOM     31  C   UNL     1      -2.794 -13.087 -48.675  0.00  0.00    +0.008 A 
ATOM     32  C   UNL     1      -1.887 -13.246 -47.623  0.00  0.00    +0.001 A 
ATOM     33  C   UNL     1      -0.527 -13.034 -47.836  0.00  0.00    +0.011 A 
ATOM     34  C   UNL     1      -0.075 -12.660 -49.104  0.00  0.00    +0.014 A 
ATOM     35  C   UNL     1      -0.987 -12.493 -50.155  0.00  0.00    +0.019 A 
BRANCH  34  36
ATOM     36  C   UNL     1       1.370 -12.420 -49.350  0.00  0.00    +0.116 C 
ATOM     37  N   UNL     1       2.181 -13.357 -49.725  0.00  0.00    -0.285 NA
ATOM     38  N   UNL     1       1.898 -11.175 -49.180  0.00  0.00    -0.343 N 
ATOM     39  H   UNL     1       1.685 -14.241 -49.872  0.00  0.00    +0.188 HD
ATOM     40  H   UNL     1       1.529 -10.644 -48.400  0.00  0.00    +0.144 HD
ATOM     41  H   UNL     1       2.914 -11.215 -49.173  0.00  0.00    +0.144 HD
ENDBRANCH  34  36
ENDBRANCH  28  30
ENDBRANCH  23  24
ENDBRANCH   9  23
TORSDOF 7
ENDMDL
MODEL 3
REMARK VINA RESULT:   -10.658      1.689      2.144
REMARK INTER + INTRA:         -16.748
REMARK INTER:                 -15.198
REMARK INTRA:                  -1.550
REMARK UNBOUND:                -1.729
REMARK  Name = CHEMBL25527
REMARK  9 active torsions:
REMARK  status: ('A' for Active; 'I' for Inactive)
REMARK    1  A    between atoms: C_1  and  C_2
REMARK    2  A    between atoms: C_2  and  C_3
REMARK    3  A    between atoms: C_7  and  O_8
REMARK    4  A    between atoms: O_8  and  C_9
REMARK    5  A    between atoms: C_13  and  C_14
REMARK    6  A    between atoms: N_21  and  C_22
REMARK    7  A    between atoms: C_22  and  C_23
REMARK    8  A    between atoms: C_27  and  C_28
REMARK    9  A    between atoms: C_32  and  C_33
REMARK                            x       y       z     vdW  Elec       q    Type
REMARK                         _______ _______ _______ _____ _____    ______ ____
ROOT
ATOM      1  C   UNL     1      -7.996 -13.882 -53.040  0.00  0.00    +0.111 A 
ATOM      2  N   UNL     1      -7.419 -14.151 -51.885  0.00  0.00    -0.232 NA
ATOM      3  C   UNL     1      -6.270 -13.405 -51.850  0.00  0.00    +0.093 A 
ATOM      4  C   UNL     1      -5.295 -13.329 -50.841  0.00  0.00    +0.075 A 
ATOM      5  C   UNL     1      -4.192 -12.492 -51.027  0.00  0.00    +0.123 A 
ATOM      6  C   UNL     1      -4.076 -11.745 -52.205  0.00  0.00    +0.048 A 
ATOM      7  C   UNL     1      -5.038 -11.804 -53.221  0.00  0.00    +0.031 A 
ATOM      8  C   UNL     1      -6.130 -12.651 -53.010  0.00  0.00    +0.069 A 
ATOM      9  N   UNL     1      -7.247 -12.968 -53.755  0.00  0.00    -0.323 N 
ENDROOT
BRANCH   1  11
ATOM     10  C   UNL     1     -10.427 -13.441 -53.498  0.00  0.00    +0.012 C 
ATOM     11  C   UNL     1      -9.293 -14.455 -53.523  0.00  0.00    +0.071 C 
ENDBRANCH   1  11
BRANCH   5  12
ATOM     12  O   UNL     1      -3.158 -12.311 -50.149  0.00  0.00    -0.489 OA
BRANCH  12  13
ATOM     13  C   UNL     1      -2.289 -13.412 -49.845  0.00  0.00    +0.176 C 
ATOM     14  C   UNL     1      -1.986 -13.339 -48.344  0.00  0.00    +0.063 C 
ATOM     15  C   UNL     1      -0.728 -12.524 -48.067  0.00  0.00    +0.110 C 
ATOM     16  N   UNL     1       0.433 -13.141 -48.708  0.00  0.00    -0.319 N 
ATOM     17  C   UNL     1       1.711 -13.086 -48.180  0.00  0.00    +0.086 C 
ATOM     18  C   UNL     1       2.001 -12.212 -46.976  0.00  0.00    +0.082 C 
ATOM     19  N   UNL     1       2.678 -13.787 -48.686  0.00  0.00    -0.290 NA
ATOM     20  C   UNL     1       0.193 -13.877 -49.955  0.00  0.00    +0.110 C 
ATOM     21  C   UNL     1      -1.014 -13.314 -50.690  0.00  0.00    +0.063 C 
ATOM     22  H   UNL     1       3.548 -13.635 -48.168  0.00  0.00    +0.188 HD
ENDBRANCH  12  13
ENDBRANCH   5  12
BRANCH   9  23
ATOM     23  C   UNL     1      -7.545 -12.461 -55.088  0.00  0.00    +0.158 C 
BRANCH  23  24
ATOM     24  C   UNL     1      -7.404 -13.516 -56.158  0.00  0.00    -0.027 A 
ATOM     25  C   UNL     1      -8.514 -13.978 -56.877  0.00  0.00    +0.005 A 
ATOM     26  C   UNL     1      -8.359 -14.942 -57.872  0.00  0.00    +0.001 A 
ATOM     27  C   UNL     1      -7.093 -15.449 -58.166  0.00  0.00    +0.008 A 
ATOM     28  C   UNL     1      -5.958 -15.002 -57.474  0.00  0.00    -0.018 A 
ATOM     29  C   UNL     1      -6.133 -14.029 -56.474  0.00  0.00    +0.014 A 
BRANCH  28  30
ATOM     30  C   UNL     1      -4.622 -15.538 -57.781  0.00  0.00    -0.017 A 
ATOM     31  C   UNL     1      -3.647 -15.675 -56.778  0.00  0.00    +0.008 A 
ATOM     32  C   UNL     1      -2.380 -16.191 -57.065  0.00  0.00    +0.001 A 
ATOM     33  C   UNL     1      -2.065 -16.586 -58.363  0.00  0.00    +0.011 A 
ATOM     34  C   UNL     1      -3.020 -16.461 -59.375  0.00  0.00    +0.014 A 
ATOM     35  C   UNL     1      -4.286 -15.935 -59.086  0.00  0.00    +0.019 A 
BRANCH  34  36
ATOM     36  C   UNL     1      -2.701 -16.867 -60.768  0.00  0.00    +0.116 C 
ATOM     37  N   UNL     1      -1.614 -17.496 -61.082  0.00  0.00    -0.285 NA
ATOM     38  N   UNL     1      -3.564 -16.577 -61.783  0.00  0.00    -0.343 N 
ATOM     39  H   UNL     1      -1.056 -17.710 -60.251  0.00  0.00    +0.188 HD
ATOM     40  H   UNL     1      -4.029 -15.679 -61.721  0.00  0.00    +0.144 HD
ATOM     41  H   UNL     1      -3.117 -16.719 -62.684  0.00  0.00    +0.144 HD
ENDBRANCH  34  36
ENDBRANCH  28  30
ENDBRANCH  23  24
ENDBRANCH   9  23
TORSDOF 7
ENDMDL
