MODEL 1
REMARK VINA RESULT:   -12.757      0.000      0.000
REMARK INTER + INTRA:         -19.931
REMARK INTER:                 -18.723
REMARK INTRA:                  -1.208
REMARK UNBOUND:                -1.208
REMARK  Name = CHEMBL26449
REMARK  10 active torsions:
REMARK  status: ('A' for Active; 'I' for Inactive)
REMARK    1  A    between atoms: C_1  and  C_2
REMARK    2  A    between atoms: C_2  and  C_3
REMARK    3  A    between atoms: C_3  and  C_4
REMARK    4  A    between atoms: C_4  and  C_5
REMARK    5  A    between atoms: C_9  and  C_10
REMARK    6  A    between atoms: N_12  and  C_13
REMARK    7  A    between atoms: C_13  and  C_14
REMARK    8  A    between atoms: C_17  and  C_18
REMARK    9  A    between atoms: C_23  and  C_24
REMARK   10  A    between atoms: C_34  and  C_35
REMARK                            x       y       z     vdW  Elec       q    Type
REMARK                         _______ _______ _______ _____ _____    ______ ____
ROOT
ATOM      1  C   UNL     1      -6.310 -14.249 -54.962  0.00  0.00    +0.070 C 
ATOM      2  N   UNL     1      -5.693 -13.321 -54.291  0.00  0.00    -0.181 NA
ATOM      3  N   UNL     1      -6.269 -12.814 -53.147  0.00  0.00    -0.189 N 
ATOM      4  C   UNL     1      -7.308 -13.432 -52.461  0.00  0.00    +0.236 C 
ATOM      5  O   UNL     1      -7.815 -12.994 -51.428  0.00  0.00    -0.274 OA
ATOM      6  C   UNL     1      -7.750 -14.750 -53.037  0.00  0.00    +0.107 C 
ATOM      7  C   UNL     1      -7.688 -14.742 -54.554  0.00  0.00    +0.046 C 
ATOM      8  C   UNL     1      -8.772 -13.854 -55.168  0.00  0.00    +0.014 C 
ENDROOT
BRANCH   1  13
ATOM      9  C   UNL     1      -2.520 -16.774 -58.787  0.00  0.00    +0.108 A 
ATOM     10  N   UNL     1      -2.565 -16.462 -57.508  0.00  0.00    -0.232 NA
ATOM     11  C   UNL     1      -3.793 -15.883 -57.309  0.00  0.00    +0.090 A 
ATOM     12  C   UNL     1      -4.356 -15.372 -56.130  0.00  0.00    +0.039 A 
ATOM     13  C   UNL     1      -5.645 -14.819 -56.181  0.00  0.00    +0.000 A 
ATOM     14  C   UNL     1      -6.347 -14.792 -57.400  0.00  0.00    +0.012 A 
ATOM     15  C   UNL     1      -5.797 -15.300 -58.586  0.00  0.00    +0.028 A 
ATOM     16  C   UNL     1      -4.515 -15.836 -58.494  0.00  0.00    +0.066 A 
ATOM     17  N   UNL     1      -3.682 -16.407 -59.420  0.00  0.00    -0.342 N 
ATOM     18  H   UNL     1      -3.889 -16.542 -60.399  0.00  0.00    +0.167 HD
BRANCH   9  19
ATOM     19  C   UNL     1      -1.390 -17.432 -59.502  0.00  0.00    +0.074 C 
BRANCH  19  20
ATOM     20  C   UNL     1      -1.764 -18.812 -60.050  0.00  0.00    +0.007 C 
BRANCH  20  22
ATOM     21  C   UNL     1      -1.427 -19.895 -57.759  0.00  0.00    +0.004 C 
ATOM     22  C   UNL     1      -2.288 -19.809 -59.010  0.00  0.00    -0.003 C 
ENDBRANCH  20  22
ENDBRANCH  19  20
ENDBRANCH   9  19
ENDBRANCH   1  13
BRANCH   3  23
ATOM     23  C   UNL     1      -5.631 -11.636 -52.567  0.00  0.00    +0.170 C 
BRANCH  23  24
ATOM     24  C   UNL     1      -4.317 -11.968 -51.897  0.00  0.00    -0.028 A 
ATOM     25  C   UNL     1      -3.761 -13.247 -52.014  0.00  0.00    +0.006 A 
ATOM     26  C   UNL     1      -2.555 -13.559 -51.379  0.00  0.00    +0.009 A 
ATOM     27  C   UNL     1      -1.879 -12.600 -50.609  0.00  0.00    -0.017 A 
ATOM     28  C   UNL     1      -2.447 -11.325 -50.484  0.00  0.00    +0.009 A 
ATOM     29  C   UNL     1      -3.653 -11.010 -51.118  0.00  0.00    +0.006 A 
BRANCH  27  30
ATOM     30  C   UNL     1      -0.622 -12.939 -49.920  0.00  0.00    -0.007 A 
ATOM     31  C   UNL     1       0.560 -12.998 -50.686  0.00  0.00    +0.009 A 
ATOM     32  C   UNL     1       1.781 -13.361 -50.116  0.00  0.00    +0.001 A 
ATOM     33  C   UNL     1       1.846 -13.678 -48.765  0.00  0.00    +0.001 A 
ATOM     34  C   UNL     1       0.692 -13.623 -47.985  0.00  0.00    +0.012 A 
ATOM     35  C   UNL     1      -0.546 -13.246 -48.541  0.00  0.00    +0.030 A 
BRANCH  35  36
ATOM     36  C   UNL     1      -1.699 -13.190 -47.653  0.00  0.00    +0.205 A 
ATOM     37  N   UNL     1      -2.573 -14.248 -47.515  0.00  0.00    -0.108 NA
ATOM     38  N   UNL     1      -3.484 -13.879 -46.625  0.00  0.00    -0.049 NA
ATOM     39  N   UNL     1      -3.119 -12.644 -46.267  0.00  0.00    -0.176 N 
ATOM     40  N   UNL     1      -2.005 -12.168 -46.837  0.00  0.00    -0.133 NA
ATOM     41  H   UNL     1      -3.654 -12.104 -45.594  0.00  0.00    +0.214 HD
ENDBRANCH  35  36
ENDBRANCH  27  30
ENDBRANCH  23  24
ENDBRANCH   3  23
TORSDOF 8
ENDMDL
MODEL 2
REMARK VINA RESULT:   -11.837      2.085      9.363
REMARK INTER + INTRA:         -18.581
REMARK INTER:                 -17.537
REMARK INTRA:                  -1.045
REMARK UNBOUND:                -1.208
REMARK  Name = CHEMBL26449
REMARK  10 active torsions:
REMARK  status: ('A' for Active; 'I' for Inactive)
REMARK    1  A    between atoms: C_1  and  C_2
REMARK    2  A    between atoms: C_2  and  C_3
REMARK    3  A    between atoms: C_3  and  C_4
REMARK    4  A    between atoms: C_4  and  C_5
REMARK    5  A    between atoms: C_9  and  C_10
REMARK    6  A    between atoms: N_12  and  C_13
REMARK    7  A    between atoms: C_13  and  C_14
REMARK    8  A    between atoms: C_17  and  C_18
REMARK    9  A    between atoms: C_23  and  C_24
REMARK   10  A    between atoms: C_34  and  C_35
REMARK                            x       y       z     vdW  Elec       q    Type
REMARK                         _______ _______ _______ _____ _____    ______ ____
ROOT
ATOM      1  C   UNL     1      -5.153 -13.234 -53.321  0.00  0.00    +0.070 C 
ATOM      2  N   UNL     1      -5.114 -14.382 -53.933  0.00  0.00    -0.181 NA
ATOM      3  N   UNL     1      -6.084 -14.691 -54.861  0.00  0.00    -0.189 N 
ATOM      4  C   UNL     1      -6.928 -13.752 -55.443  0.00  0.00    +0.236 C 
ATOM      5  O   UNL     1      -7.785 -14.017 -56.287  0.00  0.00    -0.274 OA
ATOM      6  C   UNL     1      -6.681 -12.330 -55.018  0.00  0.00    +0.107 C 
ATOM      7  C   UNL     1      -6.286 -12.249 -53.554  0.00  0.00    +0.046 C 
ATOM      8  C   UNL     1      -7.460 -12.560 -52.625  0.00  0.00    +0.014 C 
ENDROOT
BRANCH   1  13
ATOM      9  C   UNL     1      -0.356 -13.347 -49.808  0.00  0.00    +0.108 A 
ATOM     10  N   UNL     1      -0.971 -14.142 -50.659  0.00  0.00    -0.232 NA
ATOM     11  C   UNL     1      -2.054 -13.433 -51.115  0.00  0.00    +0.090 A 
ATOM     12  C   UNL     1      -3.040 -13.810 -52.040  0.00  0.00    +0.039 A 
ATOM     13  C   UNL     1      -4.062 -12.900 -52.346  0.00  0.00    +0.000 A 
ATOM     14  C   UNL     1      -4.079 -11.633 -51.732  0.00  0.00    +0.012 A 
ATOM     15  C   UNL     1      -3.101 -11.243 -50.808  0.00  0.00    +0.028 A 
ATOM     16  C   UNL     1      -2.106 -12.177 -50.528  0.00  0.00    +0.066 A 
ATOM     17  N   UNL     1      -1.015 -12.147 -49.698  0.00  0.00    -0.342 N 
ATOM     18  H   UNL     1      -0.739 -11.373 -49.110  0.00  0.00    +0.167 HD
BRANCH   9  19
ATOM     19  C   UNL     1       0.884 -13.654 -49.041  0.00  0.00    +0.074 C 
BRANCH  19  20
ATOM     20  C   UNL     1       1.523 -12.404 -48.430  0.00  0.00    +0.007 C 
BRANCH  20  22
ATOM     21  C   UNL     1       0.304 -12.318 -46.186  0.00  0.00    +0.004 C 
ATOM     22  C   UNL     1       1.643 -12.409 -46.902  0.00  0.00    -0.003 C 
ENDBRANCH  20  22
ENDBRANCH  19  20
ENDBRANCH   9  19
ENDBRANCH   1  13
BRANCH   3  23
ATOM     23  C   UNL     1      -6.102 -16.066 -55.347  0.00  0.00    +0.170 C 
BRANCH  23  24
ATOM     24  C   UNL     1      -5.163 -16.275 -56.514  0.00  0.00    -0.028 A 
ATOM     25  C   UNL     1      -4.917 -15.239 -57.423  0.00  0.00    +0.006 A 
ATOM     26  C   UNL     1      -4.064 -15.437 -58.512  0.00  0.00    +0.009 A 
ATOM     27  C   UNL     1      -3.440 -16.676 -58.720  0.00  0.00    -0.017 A 
ATOM     28  C   UNL     1      -3.700 -17.714 -57.814  0.00  0.00    +0.009 A 
ATOM     29  C   UNL     1      -4.553 -17.519 -56.724  0.00  0.00    +0.006 A 
BRANCH  27  30
ATOM     30  C   UNL     1      -2.561 -16.890 -59.882  0.00  0.00    -0.007 A 
ATOM     31  C   UNL     1      -3.161 -17.197 -61.121  0.00  0.00    +0.009 A 
ATOM     32  C   UNL     1      -2.395 -17.464 -62.257  0.00  0.00    +0.001 A 
ATOM     33  C   UNL     1      -1.008 -17.435 -62.178  0.00  0.00    +0.001 A 
ATOM     34  C   UNL     1      -0.390 -17.131 -60.966  0.00  0.00    +0.012 A 
ATOM     35  C   UNL     1      -1.149 -16.846 -59.813  0.00  0.00    +0.030 A 
BRANCH  35  36
ATOM     36  C   UNL     1      -0.427 -16.515 -58.592  0.00  0.00    +0.205 A 
ATOM     37  N   UNL     1      -0.589 -17.229 -57.424  0.00  0.00    -0.108 NA
ATOM     38  N   UNL     1       0.220 -16.686 -56.526  0.00  0.00    -0.049 NA
ATOM     39  N   UNL     1       0.830 -15.695 -57.183  0.00  0.00    -0.176 N 
ATOM     40  N   UNL     1       0.504 -15.553 -58.474  0.00  0.00    -0.133 NA
ATOM     41  H   UNL     1       1.507 -15.090 -56.728  0.00  0.00    +0.214 HD
ENDBRANCH  35  36
ENDBRANCH  27  30
ENDBRANCH  23  24
ENDBRANCH   3  23
TORSDOF 8
ENDMDL
