MODEL 1
REMARK VINA RESULT:   -13.429      0.000      0.000
REMARK INTER + INTRA:         -20.039
REMARK INTER:                 -19.709
REMARK INTRA:                  -0.330
REMARK UNBOUND:                -0.330
REMARK  Name = CHEMBL26449
REMARK  10 active torsions:
REMARK  status: ('A' for Active; 'I' for Inactive)
REMARK    1  A    between atoms: C_1  and  C_2
REMARK    2  A    between atoms: C_2  and  C_3
REMARK    3  A    between atoms: C_3  and  C_4
REMARK    4  A    between atoms: C_4  and  C_5
REMARK    5  A    between atoms: C_9  and  C_10
REMARK    6  A    between atoms: N_12  and  C_13
REMARK    7  A    between atoms: C_13  and  C_14
REMARK    8  A    between atoms: C_17  and  C_18
REMARK    9  A    between atoms: C_23  and  C_24
REMARK   10  A    between atoms: C_34  and  C_35
REMARK                            x       y       z     vdW  Elec       q    Type
REMARK                         _______ _______ _______ _____ _____    ______ ____
ROOT
ATOM      1  C   UNL     1      -6.069 -14.242 -54.809  0.00  0.00    +0.070 C 
ATOM      2  N   UNL     1      -5.516 -13.234 -54.200  0.00  0.00    -0.181 NA
ATOM      3  N   UNL     1      -6.064 -12.768 -53.024  0.00  0.00    -0.189 N 
ATOM      4  C   UNL     1      -6.974 -13.484 -52.255  0.00  0.00    +0.236 C 
ATOM      5  O   UNL     1      -7.453 -13.082 -51.194  0.00  0.00    -0.274 OA
ATOM      6  C   UNL     1      -7.301 -14.857 -52.776  0.00  0.00    +0.107 C 
ATOM      7  C   UNL     1      -7.348 -14.879 -54.293  0.00  0.00    +0.046 C 
ATOM      8  C   UNL     1      -8.568 -14.134 -54.840  0.00  0.00    +0.014 C 
ENDROOT
BRANCH   1  13
ATOM      9  C   UNL     1      -2.415 -16.717 -58.797  0.00  0.00    +0.108 A 
ATOM     10  N   UNL     1      -2.451 -16.498 -57.497  0.00  0.00    -0.232 NA
ATOM     11  C   UNL     1      -3.641 -15.857 -57.261  0.00  0.00    +0.090 A 
ATOM     12  C   UNL     1      -4.181 -15.399 -56.050  0.00  0.00    +0.039 A 
ATOM     13  C   UNL     1      -5.431 -14.762 -56.064  0.00  0.00    +0.000 A 
ATOM     14  C   UNL     1      -6.119 -14.599 -57.281  0.00  0.00    +0.012 A 
ATOM     15  C   UNL     1      -5.593 -15.052 -58.499  0.00  0.00    +0.028 A 
ATOM     16  C   UNL     1      -4.348 -15.675 -58.442  0.00  0.00    +0.066 A 
ATOM     17  N   UNL     1      -3.546 -16.229 -59.405  0.00  0.00    -0.342 N 
ATOM     18  H   UNL     1      -3.752 -16.277 -60.392  0.00  0.00    +0.167 HD
BRANCH   9  19
ATOM     19  C   UNL     1      -1.324 -17.391 -59.554  0.00  0.00    +0.074 C 
BRANCH  19  20
ATOM     20  C   UNL     1      -1.654 -18.849 -59.889  0.00  0.00    +0.007 C 
BRANCH  20  22
ATOM     21  C   UNL     1      -1.029 -19.944 -57.666  0.00  0.00    +0.004 C 
ATOM     22  C   UNL     1      -2.115 -19.705 -58.704  0.00  0.00    -0.003 C 
ENDBRANCH  20  22
ENDBRANCH  19  20
ENDBRANCH   9  19
ENDBRANCH   1  13
BRANCH   3  23
ATOM     23  C   UNL     1      -5.526 -11.513 -52.511  0.00  0.00    +0.170 C 
BRANCH  23  24
ATOM     24  C   UNL     1      -4.249 -11.713 -51.728  0.00  0.00    -0.028 A 
ATOM     25  C   UNL     1      -3.706 -10.668 -50.972  0.00  0.00    +0.006 A 
ATOM     26  C   UNL     1      -2.516 -10.848 -50.262  0.00  0.00    +0.009 A 
ATOM     27  C   UNL     1      -1.837 -12.076 -50.295  0.00  0.00    -0.017 A 
ATOM     28  C   UNL     1      -2.378 -13.115 -51.065  0.00  0.00    +0.009 A 
ATOM     29  C   UNL     1      -3.569 -12.938 -51.776  0.00  0.00    +0.006 A 
BRANCH  27  30
ATOM     30  C   UNL     1      -0.570 -12.255 -49.567  0.00  0.00    -0.007 A 
ATOM     31  C   UNL     1       0.620 -11.821 -50.187  0.00  0.00    +0.009 A 
ATOM     32  C   UNL     1       1.866 -12.002 -49.585  0.00  0.00    +0.001 A 
ATOM     33  C   UNL     1       1.951 -12.628 -48.348  0.00  0.00    +0.001 A 
ATOM     34  C   UNL     1       0.789 -13.064 -47.711  0.00  0.00    +0.012 A 
ATOM     35  C   UNL     1      -0.477 -12.877 -48.299  0.00  0.00    +0.030 A 
BRANCH  35  36
ATOM     36  C   UNL     1      -1.643 -13.339 -47.559  0.00  0.00    +0.205 A 
ATOM     37  N   UNL     1      -2.923 -12.935 -47.874  0.00  0.00    -0.108 NA
ATOM     38  N   UNL     1      -3.739 -13.551 -47.030  0.00  0.00    -0.049 NA
ATOM     39  N   UNL     1      -2.931 -14.292 -46.266  0.00  0.00    -0.176 N 
ATOM     40  N   UNL     1      -1.625 -14.237 -46.559  0.00  0.00    -0.133 NA
ATOM     41  H   UNL     1      -3.290 -14.870 -45.512  0.00  0.00    +0.214 HD
ENDBRANCH  35  36
ENDBRANCH  27  30
ENDBRANCH  23  24
ENDBRANCH   3  23
TORSDOF 8
ENDMDL
MODEL 2
REMARK VINA RESULT:   -12.969      2.076      9.949
REMARK INTER + INTRA:         -19.365
REMARK INTER:                 -18.372
REMARK INTRA:                  -0.993
REMARK UNBOUND:                -0.330
REMARK  Name = CHEMBL26449
REMARK  10 active torsions:
REMARK  status: ('A' for Active; 'I' for Inactive)
REMARK    1  A    between atoms: C_1  and  C_2
REMARK    2  A    between atoms: C_2  and  C_3
REMARK    3  A    between atoms: C_3  and  C_4
REMARK    4  A    between atoms: C_4  and  C_5
REMARK    5  A    between atoms: C_9  and  C_10
REMARK    6  A    between atoms: N_12  and  C_13
REMARK    7  A    between atoms: C_13  and  C_14
REMARK    8  A    between atoms: C_17  and  C_18
REMARK    9  A    between atoms: C_23  and  C_24
REMARK   10  A    between atoms: C_34  and  C_35
REMARK                            x       y       z     vdW  Elec       q    Type
REMARK                         _______ _______ _______ _____ _____    ______ ____
ROOT
ATOM      1  C   UNL     1      -5.618 -13.775 -53.521  0.00  0.00    +0.070 C 
ATOM      2  N   UNL     1      -5.512 -13.612 -54.808  0.00  0.00    -0.181 NA
ATOM      3  N   UNL     1      -6.484 -14.123 -55.640  0.00  0.00    -0.189 N 
ATOM      4  C   UNL     1      -7.743 -14.524 -55.208  0.00  0.00    +0.236 C 
ATOM      5  O   UNL     1      -8.623 -14.964 -55.949  0.00  0.00    -0.274 OA
ATOM      6  C   UNL     1      -8.003 -14.319 -53.741  0.00  0.00    +0.107 C 
ATOM      7  C   UNL     1      -6.756 -14.578 -52.914  0.00  0.00    +0.046 C 
ATOM      8  C   UNL     1      -6.393 -16.064 -52.873  0.00  0.00    +0.014 C 
ENDROOT
BRANCH   1  13
ATOM      9  C   UNL     1      -0.827 -12.794 -50.137  0.00  0.00    +0.108 A 
ATOM     10  N   UNL     1      -1.345 -13.774 -50.850  0.00  0.00    -0.232 NA
ATOM     11  C   UNL     1      -2.508 -13.275 -51.380  0.00  0.00    +0.090 A 
ATOM     12  C   UNL     1      -3.445 -13.899 -52.217  0.00  0.00    +0.039 A 
ATOM     13  C   UNL     1      -4.572 -13.173 -52.630  0.00  0.00    +0.000 A 
ATOM     14  C   UNL     1      -4.741 -11.841 -52.206  0.00  0.00    +0.012 A 
ATOM     15  C   UNL     1      -3.813 -11.205 -51.369  0.00  0.00    +0.028 A 
ATOM     16  C   UNL     1      -2.710 -11.961 -50.979  0.00  0.00    +0.066 A 
ATOM     17  N   UNL     1      -1.628 -11.679 -50.187  0.00  0.00    -0.342 N 
ATOM     18  H   UNL     1      -1.446 -10.800 -49.724  0.00  0.00    +0.167 HD
BRANCH   9  19
ATOM     19  C   UNL     1       0.444 -12.834 -49.361  0.00  0.00    +0.074 C 
BRANCH  19  20
ATOM     20  C   UNL     1       0.234 -13.276 -47.910  0.00  0.00    +0.007 C 
BRANCH  20  22
ATOM     21  C   UNL     1       0.602 -12.122 -45.659  0.00  0.00    +0.004 C 
ATOM     22  C   UNL     1      -0.208 -12.169 -46.946  0.00  0.00    -0.003 C 
ENDBRANCH  20  22
ENDBRANCH  19  20
ENDBRANCH   9  19
ENDBRANCH   1  13
BRANCH   3  23
ATOM     23  C   UNL     1      -6.195 -14.091 -57.070  0.00  0.00    +0.170 C 
BRANCH  23  24
ATOM     24  C   UNL     1      -5.231 -15.179 -57.485  0.00  0.00    -0.028 A 
ATOM     25  C   UNL     1      -5.157 -16.377 -56.765  0.00  0.00    +0.006 A 
ATOM     26  C   UNL     1      -4.253 -17.375 -57.138  0.00  0.00    +0.009 A 
ATOM     27  C   UNL     1      -3.398 -17.198 -58.236  0.00  0.00    -0.017 A 
ATOM     28  C   UNL     1      -3.466 -15.990 -58.946  0.00  0.00    +0.009 A 
ATOM     29  C   UNL     1      -4.370 -14.990 -58.574  0.00  0.00    +0.006 A 
BRANCH  27  30
ATOM     30  C   UNL     1      -2.428 -18.240 -58.612  0.00  0.00    -0.007 A 
ATOM     31  C   UNL     1      -1.701 -18.873 -57.582  0.00  0.00    +0.009 A 
ATOM     32  C   UNL     1      -0.727 -19.834 -57.861  0.00  0.00    +0.001 A 
ATOM     33  C   UNL     1      -0.456 -20.181 -59.178  0.00  0.00    +0.001 A 
ATOM     34  C   UNL     1      -1.164 -19.573 -60.214  0.00  0.00    +0.012 A 
ATOM     35  C   UNL     1      -2.158 -18.611 -59.950  0.00  0.00    +0.030 A 
BRANCH  35  36
ATOM     36  C   UNL     1      -2.868 -18.042 -61.087  0.00  0.00    +0.205 A 
ATOM     37  N   UNL     1      -2.410 -16.928 -61.758  0.00  0.00    -0.108 NA
ATOM     38  N   UNL     1      -3.268 -16.691 -62.740  0.00  0.00    -0.049 NA
ATOM     39  N   UNL     1      -4.181 -17.660 -62.626  0.00  0.00    -0.176 N 
ATOM     40  N   UNL     1      -3.979 -18.551 -61.647  0.00  0.00    -0.133 NA
ATOM     41  H   UNL     1      -4.978 -17.719 -63.252  0.00  0.00    +0.214 HD
ENDBRANCH  35  36
ENDBRANCH  27  30
ENDBRANCH  23  24
ENDBRANCH   3  23
TORSDOF 8
ENDMDL
MODEL 3
REMARK VINA RESULT:   -12.816      2.357      9.963
REMARK INTER + INTRA:         -19.140
REMARK INTER:                 -17.425
REMARK INTRA:                  -1.715
REMARK UNBOUND:                -0.330
REMARK  Name = CHEMBL26449
REMARK  10 active torsions:
REMARK  status: ('A' for Active; 'I' for Inactive)
REMARK    1  A    between atoms: C_1  and  C_2
REMARK    2  A    between atoms: C_2  and  C_3
REMARK    3  A    between atoms: C_3  and  C_4
REMARK    4  A    between atoms: C_4  and  C_5
REMARK    5  A    between atoms: C_9  and  C_10
REMARK    6  A    between atoms: N_12  and  C_13
REMARK    7  A    between atoms: C_13  and  C_14
REMARK    8  A    between atoms: C_17  and  C_18
REMARK    9  A    between atoms: C_23  and  C_24
REMARK   10  A    between atoms: C_34  and  C_35
REMARK                            x       y       z     vdW  Elec       q    Type
REMARK                         _______ _______ _______ _____ _____    ______ ____
ROOT
ATOM      1  C   UNL     1      -5.574 -13.549 -54.411  0.00  0.00    +0.070 C 
ATOM      2  N   UNL     1      -5.251 -14.648 -55.027  0.00  0.00    -0.181 NA
ATOM      3  N   UNL     1      -6.009 -15.076 -56.095  0.00  0.00    -0.189 N 
ATOM      4  C   UNL     1      -6.906 -14.268 -56.783  0.00  0.00    +0.236 C 
ATOM      5  O   UNL     1      -7.573 -14.638 -57.750  0.00  0.00    -0.274 OA
ATOM      6  C   UNL     1      -6.970 -12.843 -56.304  0.00  0.00    +0.107 C 
ATOM      7  C   UNL     1      -6.812 -12.757 -54.796  0.00  0.00    +0.046 C 
ATOM      8  C   UNL     1      -8.038 -13.297 -54.059  0.00  0.00    +0.014 C 
ENDROOT
BRANCH   1  13
ATOM      9  C   UNL     1      -1.464 -13.058 -50.140  0.00  0.00    +0.108 A 
ATOM     10  N   UNL     1      -1.831 -13.930 -51.058  0.00  0.00    -0.232 NA
ATOM     11  C   UNL     1      -2.893 -13.358 -51.711  0.00  0.00    +0.090 A 
ATOM     12  C   UNL     1      -3.658 -13.858 -52.775  0.00  0.00    +0.039 A 
ATOM     13  C   UNL     1      -4.710 -13.078 -53.277  0.00  0.00    +0.000 A 
ATOM     14  C   UNL     1      -4.975 -11.815 -52.715  0.00  0.00    +0.012 A 
ATOM     15  C   UNL     1      -4.219 -11.302 -51.652  0.00  0.00    +0.028 A 
ATOM     16  C   UNL     1      -3.187 -12.110 -51.180  0.00  0.00    +0.066 A 
ATOM     17  N   UNL     1      -2.264 -11.942 -50.181  0.00  0.00    -0.342 N 
ATOM     18  H   UNL     1      -2.181 -11.135 -49.580  0.00  0.00    +0.167 HD
BRANCH   9  19
ATOM     19  C   UNL     1      -0.346 -13.209 -49.167  0.00  0.00    +0.074 C 
BRANCH  19  20
ATOM     20  C   UNL     1      -0.661 -12.580 -47.807  0.00  0.00    +0.007 C 
BRANCH  20  22
ATOM     21  C   UNL     1      -2.484 -13.880 -46.573  0.00  0.00    +0.004 C 
ATOM     22  C   UNL     1      -0.999 -13.573 -46.689  0.00  0.00    -0.003 C 
ENDBRANCH  20  22
ENDBRANCH  19  20
ENDBRANCH   9  19
ENDBRANCH   1  13
BRANCH   3  23
ATOM     23  C   UNL     1      -5.721 -16.415 -56.600  0.00  0.00    +0.170 C 
BRANCH  23  24
ATOM     24  C   UNL     1      -4.440 -16.462 -57.400  0.00  0.00    -0.028 A 
ATOM     25  C   UNL     1      -4.246 -15.599 -58.486  0.00  0.00    +0.006 A 
ATOM     26  C   UNL     1      -3.069 -15.656 -59.237  0.00  0.00    +0.009 A 
ATOM     27  C   UNL     1      -2.060 -16.579 -58.924  0.00  0.00    -0.017 A 
ATOM     28  C   UNL     1      -2.264 -17.450 -57.845  0.00  0.00    +0.009 A 
ATOM     29  C   UNL     1      -3.441 -17.396 -57.092  0.00  0.00    +0.006 A 
BRANCH  27  30
ATOM     30  C   UNL     1      -0.831 -16.654 -59.733  0.00  0.00    -0.007 A 
ATOM     31  C   UNL     1       0.273 -15.871 -59.340  0.00  0.00    +0.009 A 
ATOM     32  C   UNL     1       1.454 -15.849 -60.083  0.00  0.00    +0.001 A 
ATOM     33  C   UNL     1       1.556 -16.608 -61.242  0.00  0.00    +0.001 A 
ATOM     34  C   UNL     1       0.480 -17.394 -61.651  0.00  0.00    +0.012 A 
ATOM     35  C   UNL     1      -0.715 -17.438 -60.906  0.00  0.00    +0.030 A 
BRANCH  35  36
ATOM     36  C   UNL     1      -1.783 -18.303 -61.388  0.00  0.00    +0.205 A 
ATOM     37  N   UNL     1      -2.748 -17.860 -62.268  0.00  0.00    -0.108 NA
ATOM     38  N   UNL     1      -3.543 -18.890 -62.516  0.00  0.00    -0.049 NA
ATOM     39  N   UNL     1      -3.026 -19.892 -61.798  0.00  0.00    -0.176 N 
ATOM     40  N   UNL     1      -1.916 -19.609 -61.103  0.00  0.00    -0.133 NA
ATOM     41  H   UNL     1      -3.448 -20.815 -61.788  0.00  0.00    +0.214 HD
ENDBRANCH  35  36
ENDBRANCH  27  30
ENDBRANCH  23  24
ENDBRANCH   3  23
TORSDOF 8
ENDMDL
