MODEL 1
REMARK VINA RESULT:   -13.108      0.000      0.000
REMARK INTER + INTRA:         -20.285
REMARK INTER:                 -19.238
REMARK INTRA:                  -1.048
REMARK UNBOUND:                -1.048
REMARK  Name = CHEMBL26449
REMARK  10 active torsions:
REMARK  status: ('A' for Active; 'I' for Inactive)
REMARK    1  A    between atoms: C_1  and  C_2
REMARK    2  A    between atoms: C_2  and  C_3
REMARK    3  A    between atoms: C_3  and  C_4
REMARK    4  A    between atoms: C_4  and  C_5
REMARK    5  A    between atoms: C_9  and  C_10
REMARK    6  A    between atoms: N_12  and  C_13
REMARK    7  A    between atoms: C_13  and  C_14
REMARK    8  A    between atoms: C_17  and  C_18
REMARK    9  A    between atoms: C_23  and  C_24
REMARK   10  A    between atoms: C_34  and  C_35
REMARK                            x       y       z     vdW  Elec       q    Type
REMARK                         _______ _______ _______ _____ _____    ______ ____
ROOT
ATOM      1  C   UNL     1     -34.585   3.640  10.076  0.00  0.00    +0.070 C 
ATOM      2  N   UNL     1     -34.419   4.299   8.967  0.00  0.00    -0.181 NA
ATOM      3  N   UNL     1     -35.442   5.085   8.484  0.00  0.00    -0.189 N 
ATOM      4  C   UNL     1     -36.531   5.495   9.245  0.00  0.00    +0.236 C 
ATOM      5  O   UNL     1     -37.440   6.213   8.826  0.00  0.00    -0.274 OA
ATOM      6  C   UNL     1     -36.501   5.051  10.682  0.00  0.00    +0.107 C 
ATOM      7  C   UNL     1     -35.909   3.660  10.822  0.00  0.00    +0.046 C 
ATOM      8  C   UNL     1     -36.843   2.580  10.272  0.00  0.00    +0.014 C 
ENDROOT
BRANCH   1  13
ATOM      9  C   UNL     1     -29.279   1.137  11.052  0.00  0.00    +0.108 A 
ATOM     10  N   UNL     1     -29.816   2.017  10.231  0.00  0.00    -0.232 NA
ATOM     11  C   UNL     1     -31.135   2.111  10.598  0.00  0.00    +0.090 A 
ATOM     12  C   UNL     1     -32.156   2.906  10.055  0.00  0.00    +0.039 A 
ATOM     13  C   UNL     1     -33.443   2.824  10.608  0.00  0.00    +0.000 A 
ATOM     14  C   UNL     1     -33.685   1.959  11.691  0.00  0.00    +0.012 A 
ATOM     15  C   UNL     1     -32.675   1.160  12.244  0.00  0.00    +0.028 A 
ATOM     16  C   UNL     1     -31.413   1.268  11.664  0.00  0.00    +0.066 A 
ATOM     17  N   UNL     1     -30.216   0.657  11.934  0.00  0.00    -0.342 N 
ATOM     18  H   UNL     1     -30.049  -0.025  12.659  0.00  0.00    +0.167 HD
BRANCH   9  19
ATOM     19  C   UNL     1     -27.859   0.685  11.065  0.00  0.00    +0.074 C 
BRANCH  19  20
ATOM     20  C   UNL     1     -27.068   1.265  12.241  0.00  0.00    +0.007 C 
BRANCH  20  22
ATOM     21  C   UNL     1     -26.287   3.666  12.638  0.00  0.00    +0.004 C 
ATOM     22  C   UNL     1     -27.455   2.691  12.650  0.00  0.00    -0.003 C 
ENDBRANCH  20  22
ENDBRANCH  19  20
ENDBRANCH   9  19
ENDBRANCH   1  13
BRANCH   3  23
ATOM     23  C   UNL     1     -35.268   5.622   7.139  0.00  0.00    +0.170 C 
BRANCH  23  24
ATOM     24  C   UNL     1     -34.152   6.638   7.067  0.00  0.00    -0.028 A 
ATOM     25  C   UNL     1     -33.921   7.518   8.131  0.00  0.00    +0.006 A 
ATOM     26  C   UNL     1     -32.900   8.470   8.057  0.00  0.00    +0.009 A 
ATOM     27  C   UNL     1     -32.089   8.568   6.916  0.00  0.00    -0.017 A 
ATOM     28  C   UNL     1     -32.334   7.694   5.847  0.00  0.00    +0.009 A 
ATOM     29  C   UNL     1     -33.354   6.741   5.919  0.00  0.00    +0.006 A 
BRANCH  27  30
ATOM     30  C   UNL     1     -31.032   9.590   6.830  0.00  0.00    -0.007 A 
ATOM     31  C   UNL     1     -31.363  10.845   6.280  0.00  0.00    +0.009 A 
ATOM     32  C   UNL     1     -30.405  11.847   6.117  0.00  0.00    +0.001 A 
ATOM     33  C   UNL     1     -29.089  11.613   6.497  0.00  0.00    +0.001 A 
ATOM     34  C   UNL     1     -28.736  10.381   7.047  0.00  0.00    +0.012 A 
ATOM     35  C   UNL     1     -29.693   9.364   7.230  0.00  0.00    +0.030 A 
BRANCH  35  36
ATOM     36  C   UNL     1     -29.248   8.116   7.833  0.00  0.00    +0.205 A 
ATOM     37  N   UNL     1     -27.924   7.732   7.837  0.00  0.00    -0.108 NA
ATOM     38  N   UNL     1     -27.862   6.572   8.476  0.00  0.00    -0.049 NA
ATOM     39  N   UNL     1     -29.126   6.319   8.831  0.00  0.00    -0.176 N 
ATOM     40  N   UNL     1     -30.031   7.248   8.496  0.00  0.00    -0.133 NA
ATOM     41  H   UNL     1     -29.380   5.474   9.333  0.00  0.00    +0.214 HD
ENDBRANCH  35  36
ENDBRANCH  27  30
ENDBRANCH  23  24
ENDBRANCH   3  23
TORSDOF 8
ENDMDL
MODEL 2
REMARK VINA RESULT:   -12.649      2.795      7.971
REMARK INTER + INTRA:         -19.612
REMARK INTER:                 -18.306
REMARK INTRA:                  -1.305
REMARK UNBOUND:                -1.048
REMARK  Name = CHEMBL26449
REMARK  10 active torsions:
REMARK  status: ('A' for Active; 'I' for Inactive)
REMARK    1  A    between atoms: C_1  and  C_2
REMARK    2  A    between atoms: C_2  and  C_3
REMARK    3  A    between atoms: C_3  and  C_4
REMARK    4  A    between atoms: C_4  and  C_5
REMARK    5  A    between atoms: C_9  and  C_10
REMARK    6  A    between atoms: N_12  and  C_13
REMARK    7  A    between atoms: C_13  and  C_14
REMARK    8  A    between atoms: C_17  and  C_18
REMARK    9  A    between atoms: C_23  and  C_24
REMARK   10  A    between atoms: C_34  and  C_35
REMARK                            x       y       z     vdW  Elec       q    Type
REMARK                         _______ _______ _______ _____ _____    ______ ____
ROOT
ATOM      1  C   UNL     1     -28.164   2.480  11.349  0.00  0.00    +0.070 C 
ATOM      2  N   UNL     1     -29.292   2.114  10.814  0.00  0.00    -0.181 NA
ATOM      3  N   UNL     1     -30.118   1.247  11.497  0.00  0.00    -0.189 N 
ATOM      4  C   UNL     1     -30.004   0.974  12.855  0.00  0.00    +0.236 C 
ATOM      5  O   UNL     1     -30.749   0.215  13.475  0.00  0.00    -0.274 OA
ATOM      6  C   UNL     1     -28.919   1.739  13.565  0.00  0.00    +0.107 C 
ATOM      7  C   UNL     1     -27.698   1.919  12.682  0.00  0.00    +0.046 C 
ATOM      8  C   UNL     1     -26.944   0.605  12.470  0.00  0.00    +0.014 C 
ENDROOT
BRANCH   1  13
ATOM      9  C   UNL     1     -25.994   6.460   7.500  0.00  0.00    +0.108 A 
ATOM     10  N   UNL     1     -27.108   5.784   7.693  0.00  0.00    -0.232 NA
ATOM     11  C   UNL     1     -26.893   5.026   8.816  0.00  0.00    +0.090 A 
ATOM     12  C   UNL     1     -27.755   4.127   9.462  0.00  0.00    +0.039 A 
ATOM     13  C   UNL     1     -27.300   3.459  10.609  0.00  0.00    +0.000 A 
ATOM     14  C   UNL     1     -26.002   3.704  11.092  0.00  0.00    +0.012 A 
ATOM     15  C   UNL     1     -25.130   4.600  10.458  0.00  0.00    +0.028 A 
ATOM     16  C   UNL     1     -25.618   5.239   9.321  0.00  0.00    +0.066 A 
ATOM     17  N   UNL     1     -25.065   6.155   8.464  0.00  0.00    -0.342 N 
ATOM     18  H   UNL     1     -24.135   6.543   8.533  0.00  0.00    +0.167 HD
BRANCH   9  19
ATOM     19  C   UNL     1     -25.722   7.432   6.404  0.00  0.00    +0.074 C 
BRANCH  19  20
ATOM     20  C   UNL     1     -26.352   8.804   6.664  0.00  0.00    +0.007 C 
BRANCH  20  22
ATOM     21  C   UNL     1     -28.396  10.291   6.281  0.00  0.00    +0.004 C 
ATOM     22  C   UNL     1     -27.514   9.177   5.736  0.00  0.00    -0.003 C 
ENDBRANCH  20  22
ENDBRANCH  19  20
ENDBRANCH   9  19
ENDBRANCH   1  13
BRANCH   3  23
ATOM     23  C   UNL     1     -31.256   0.715  10.754  0.00  0.00    +0.170 C 
BRANCH  23  24
ATOM     24  C   UNL     1     -32.395   1.705  10.665  0.00  0.00    -0.028 A 
ATOM     25  C   UNL     1     -33.636   1.416  11.247  0.00  0.00    +0.006 A 
ATOM     26  C   UNL     1     -34.694   2.323  11.148  0.00  0.00    +0.009 A 
ATOM     27  C   UNL     1     -34.540   3.538  10.464  0.00  0.00    -0.017 A 
ATOM     28  C   UNL     1     -33.300   3.816   9.872  0.00  0.00    +0.009 A 
ATOM     29  C   UNL     1     -32.239   2.910   9.968  0.00  0.00    +0.006 A 
BRANCH  27  30
ATOM     30  C   UNL     1     -35.665   4.480  10.340  0.00  0.00    -0.007 A 
ATOM     31  C   UNL     1     -36.128   5.120  11.508  0.00  0.00    +0.009 A 
ATOM     32  C   UNL     1     -37.221   5.987  11.480  0.00  0.00    +0.001 A 
ATOM     33  C   UNL     1     -37.880   6.231  10.282  0.00  0.00    +0.001 A 
ATOM     34  C   UNL     1     -37.440   5.614   9.112  0.00  0.00    +0.012 A 
ATOM     35  C   UNL     1     -36.330   4.746   9.119  0.00  0.00    +0.030 A 
BRANCH  35  36
ATOM     36  C   UNL     1     -35.919   4.161   7.851  0.00  0.00    +0.205 A 
ATOM     37  N   UNL     1     -35.068   4.811   6.982  0.00  0.00    -0.108 NA
ATOM     38  N   UNL     1     -34.884   4.002   5.948  0.00  0.00    -0.049 NA
ATOM     39  N   UNL     1     -35.610   2.919   6.239  0.00  0.00    -0.176 N 
ATOM     40  N   UNL     1     -36.249   2.933   7.416  0.00  0.00    -0.133 NA
ATOM     41  H   UNL     1     -35.666   2.127   5.605  0.00  0.00    +0.214 HD
ENDBRANCH  35  36
ENDBRANCH  27  30
ENDBRANCH  23  24
ENDBRANCH   3  23
TORSDOF 8
ENDMDL
MODEL 3
REMARK VINA RESULT:   -12.353      2.143      8.549
REMARK INTER + INTRA:         -19.178
REMARK INTER:                 -17.575
REMARK INTRA:                  -1.603
REMARK UNBOUND:                -1.048
REMARK  Name = CHEMBL26449
REMARK  10 active torsions:
REMARK  status: ('A' for Active; 'I' for Inactive)
REMARK    1  A    between atoms: C_1  and  C_2
REMARK    2  A    between atoms: C_2  and  C_3
REMARK    3  A    between atoms: C_3  and  C_4
REMARK    4  A    between atoms: C_4  and  C_5
REMARK    5  A    between atoms: C_9  and  C_10
REMARK    6  A    between atoms: N_12  and  C_13
REMARK    7  A    between atoms: C_13  and  C_14
REMARK    8  A    between atoms: C_17  and  C_18
REMARK    9  A    between atoms: C_23  and  C_24
REMARK   10  A    between atoms: C_34  and  C_35
REMARK                            x       y       z     vdW  Elec       q    Type
REMARK                         _______ _______ _______ _____ _____    ______ ____
ROOT
ATOM      1  C   UNL     1     -34.944   4.642   9.140  0.00  0.00    +0.070 C 
ATOM      2  N   UNL     1     -34.684   3.381   8.950  0.00  0.00    -0.181 NA
ATOM      3  N   UNL     1     -35.311   2.433   9.728  0.00  0.00    -0.189 N 
ATOM      4  C   UNL     1     -36.446   2.683  10.490  0.00  0.00    +0.236 C 
ATOM      5  O   UNL     1     -37.024   1.836  11.174  0.00  0.00    -0.274 OA
ATOM      6  C   UNL     1     -36.990   4.081  10.376  0.00  0.00    +0.107 C 
ATOM      7  C   UNL     1     -35.874   5.102  10.250  0.00  0.00    +0.046 C 
ATOM      8  C   UNL     1     -35.097   5.269  11.557  0.00  0.00    +0.014 C 
ENDROOT
BRANCH   1  13
ATOM      9  C   UNL     1     -32.222   9.456   6.952  0.00  0.00    +0.108 A 
ATOM     10  N   UNL     1     -32.662   9.017   8.114  0.00  0.00    -0.232 NA
ATOM     11  C   UNL     1     -33.199   7.779   7.865  0.00  0.00    +0.090 A 
ATOM     12  C   UNL     1     -33.802   6.875   8.752  0.00  0.00    +0.039 A 
ATOM     13  C   UNL     1     -34.283   5.656   8.252  0.00  0.00    +0.000 A 
ATOM     14  C   UNL     1     -34.150   5.359   6.883  0.00  0.00    +0.012 A 
ATOM     15  C   UNL     1     -33.549   6.253   5.985  0.00  0.00    +0.028 A 
ATOM     16  C   UNL     1     -33.088   7.453   6.520  0.00  0.00    +0.066 A 
ATOM     17  N   UNL     1     -32.464   8.537   5.960  0.00  0.00    -0.342 N 
ATOM     18  H   UNL     1     -32.219   8.642   4.986  0.00  0.00    +0.167 HD
BRANCH   9  19
ATOM     19  C   UNL     1     -31.548  10.759   6.692  0.00  0.00    +0.074 C 
BRANCH  19  20
ATOM     20  C   UNL     1     -30.134  10.818   7.275  0.00  0.00    +0.007 C 
BRANCH  20  22
ATOM     21  C   UNL     1     -29.073  12.531   5.702  0.00  0.00    +0.004 C 
ATOM     22  C   UNL     1     -29.021  11.118   6.264  0.00  0.00    -0.003 C 
ENDBRANCH  20  22
ENDBRANCH  19  20
ENDBRANCH   9  19
ENDBRANCH   1  13
BRANCH   3  23
ATOM     23  C   UNL     1     -34.818   1.065   9.607  0.00  0.00    +0.170 C 
BRANCH  23  24
ATOM     24  C   UNL     1     -33.663   0.788  10.542  0.00  0.00    -0.028 A 
ATOM     25  C   UNL     1     -32.823  -0.312  10.329  0.00  0.00    +0.006 A 
ATOM     26  C   UNL     1     -31.766  -0.578  11.204  0.00  0.00    +0.009 A 
ATOM     27  C   UNL     1     -31.526   0.245  12.314  0.00  0.00    -0.017 A 
ATOM     28  C   UNL     1     -32.378   1.337  12.530  0.00  0.00    +0.009 A 
ATOM     29  C   UNL     1     -33.436   1.606  11.657  0.00  0.00    +0.006 A 
BRANCH  27  30
ATOM     30  C   UNL     1     -30.428  -0.053  13.249  0.00  0.00    -0.007 A 
ATOM     31  C   UNL     1     -30.745  -0.694  14.464  0.00  0.00    +0.009 A 
ATOM     32  C   UNL     1     -29.768  -0.964  15.423  0.00  0.00    +0.001 A 
ATOM     33  C   UNL     1     -28.449  -0.594  15.191  0.00  0.00    +0.001 A 
ATOM     34  C   UNL     1     -28.109   0.039  13.996  0.00  0.00    +0.012 A 
ATOM     35  C   UNL     1     -29.080   0.306  13.011  0.00  0.00    +0.030 A 
BRANCH  35  36
ATOM     36  C   UNL     1     -28.638   0.948  11.781  0.00  0.00    +0.205 A 
ATOM     37  N   UNL     1     -28.523   2.318  11.665  0.00  0.00    -0.108 NA
ATOM     38  N   UNL     1     -28.081   2.564  10.440  0.00  0.00    -0.049 NA
ATOM     39  N   UNL     1     -27.942   1.355   9.887  0.00  0.00    -0.176 N 
ATOM     40  N   UNL     1     -28.235   0.309  10.669  0.00  0.00    -0.133 NA
ATOM     41  H   UNL     1     -27.625   1.240   8.929  0.00  0.00    +0.214 HD
ENDBRANCH  35  36
ENDBRANCH  27  30
ENDBRANCH  23  24
ENDBRANCH   3  23
TORSDOF 8
ENDMDL
