MODEL 1
REMARK VINA RESULT:   -12.740      0.000      0.000
REMARK INTER + INTRA:         -19.186
REMARK INTER:                 -18.699
REMARK INTRA:                  -0.487
REMARK UNBOUND:                -0.487
REMARK  Name = CHEMBL26449
REMARK  10 active torsions:
REMARK  status: ('A' for Active; 'I' for Inactive)
REMARK    1  A    between atoms: C_1  and  C_2
REMARK    2  A    between atoms: C_2  and  C_3
REMARK    3  A    between atoms: C_3  and  C_4
REMARK    4  A    between atoms: C_4  and  C_5
REMARK    5  A    between atoms: C_9  and  C_10
REMARK    6  A    between atoms: N_12  and  C_13
REMARK    7  A    between atoms: C_13  and  C_14
REMARK    8  A    between atoms: C_17  and  C_18
REMARK    9  A    between atoms: C_23  and  C_24
REMARK   10  A    between atoms: C_34  and  C_35
REMARK                            x       y       z     vdW  Elec       q    Type
REMARK                         _______ _______ _______ _____ _____    ______ ____
ROOT
ATOM      1  C   UNL     1     -33.620   2.955  10.110  0.00  0.00    +0.070 C 
ATOM      2  N   UNL     1     -33.390   3.525   8.964  0.00  0.00    -0.181 NA
ATOM      3  N   UNL     1     -34.344   4.355   8.415  0.00  0.00    -0.189 N 
ATOM      4  C   UNL     1     -35.406   4.897   9.131  0.00  0.00    +0.236 C 
ATOM      5  O   UNL     1     -36.251   5.654   8.652  0.00  0.00    -0.274 OA
ATOM      6  C   UNL     1     -35.426   4.546  10.594  0.00  0.00    +0.107 C 
ATOM      7  C   UNL     1     -34.946   3.125  10.832  0.00  0.00    +0.046 C 
ATOM      8  C   UNL     1     -35.956   2.088  10.337  0.00  0.00    +0.014 C 
ENDROOT
BRANCH   1  13
ATOM      9  C   UNL     1     -28.706  -0.243  11.111  0.00  0.00    +0.108 A 
ATOM     10  N   UNL     1     -29.228   0.483  10.142  0.00  0.00    -0.232 NA
ATOM     11  C   UNL     1     -30.428   0.939  10.625  0.00  0.00    +0.090 A 
ATOM     12  C   UNL     1     -31.385   1.757  10.005  0.00  0.00    +0.039 A 
ATOM     13  C   UNL     1     -32.551   2.089  10.711  0.00  0.00    +0.000 A 
ATOM     14  C   UNL     1     -32.737   1.608  12.020  0.00  0.00    +0.012 A 
ATOM     15  C   UNL     1     -31.790   0.791  12.653  0.00  0.00    +0.028 A 
ATOM     16  C   UNL     1     -30.649   0.481  11.916  0.00  0.00    +0.066 A 
ATOM     17  N   UNL     1     -29.539  -0.271  12.202  0.00  0.00    -0.342 N 
ATOM     18  H   UNL     1     -29.361  -0.759  13.068  0.00  0.00    +0.167 HD
BRANCH   9  19
ATOM     19  C   UNL     1     -27.399  -0.958  11.080  0.00  0.00    +0.074 C 
BRANCH  19  20
ATOM     20  C   UNL     1     -26.655  -0.767   9.756  0.00  0.00    +0.007 C 
BRANCH  20  22
ATOM     21  C   UNL     1     -25.611   1.565   9.690  0.00  0.00    +0.004 C 
ATOM     22  C   UNL     1     -25.373   0.070   9.840  0.00  0.00    -0.003 C 
ENDBRANCH  20  22
ENDBRANCH  19  20
ENDBRANCH   9  19
ENDBRANCH   1  13
BRANCH   3  23
ATOM     23  C   UNL     1     -34.113   4.788   7.041  0.00  0.00    +0.170 C 
BRANCH  23  24
ATOM     24  C   UNL     1     -33.182   5.975   6.962  0.00  0.00    -0.028 A 
ATOM     25  C   UNL     1     -32.718   6.595   8.129  0.00  0.00    +0.006 A 
ATOM     26  C   UNL     1     -31.871   7.704   8.055  0.00  0.00    +0.009 A 
ATOM     27  C   UNL     1     -31.472   8.224   6.815  0.00  0.00    -0.017 A 
ATOM     28  C   UNL     1     -31.951   7.609   5.649  0.00  0.00    +0.009 A 
ATOM     29  C   UNL     1     -32.799   6.499   5.720  0.00  0.00    +0.006 A 
BRANCH  27  30
ATOM     30  C   UNL     1     -30.601   9.409   6.740  0.00  0.00    -0.007 A 
ATOM     31  C   UNL     1     -31.169  10.624   6.304  0.00  0.00    +0.009 A 
ATOM     32  C   UNL     1     -30.398  11.779   6.158  0.00  0.00    +0.001 A 
ATOM     33  C   UNL     1     -29.038  11.742   6.440  0.00  0.00    +0.001 A 
ATOM     34  C   UNL     1     -28.453  10.554   6.876  0.00  0.00    +0.012 A 
ATOM     35  C   UNL     1     -29.219   9.383   7.042  0.00  0.00    +0.030 A 
BRANCH  35  36
ATOM     36  C   UNL     1     -28.537   8.190   7.524  0.00  0.00    +0.205 A 
ATOM     37  N   UNL     1     -27.192   7.974   7.308  0.00  0.00    -0.108 NA
ATOM     38  N   UNL     1     -26.891   6.821   7.889  0.00  0.00    -0.049 NA
ATOM     39  N   UNL     1     -28.043   6.408   8.427  0.00  0.00    -0.176 N 
ATOM     40  N   UNL     1     -29.095   7.222   8.270  0.00  0.00    -0.133 NA
ATOM     41  H   UNL     1     -28.112   5.530   8.932  0.00  0.00    +0.214 HD
ENDBRANCH  35  36
ENDBRANCH  27  30
ENDBRANCH  23  24
ENDBRANCH   3  23
TORSDOF 8
ENDMDL
MODEL 2
REMARK VINA RESULT:   -12.656      2.142      8.840
REMARK INTER + INTRA:         -19.063
REMARK INTER:                 -17.287
REMARK INTRA:                  -1.776
REMARK UNBOUND:                -0.487
REMARK  Name = CHEMBL26449
REMARK  10 active torsions:
REMARK  status: ('A' for Active; 'I' for Inactive)
REMARK    1  A    between atoms: C_1  and  C_2
REMARK    2  A    between atoms: C_2  and  C_3
REMARK    3  A    between atoms: C_3  and  C_4
REMARK    4  A    between atoms: C_4  and  C_5
REMARK    5  A    between atoms: C_9  and  C_10
REMARK    6  A    between atoms: N_12  and  C_13
REMARK    7  A    between atoms: C_13  and  C_14
REMARK    8  A    between atoms: C_17  and  C_18
REMARK    9  A    between atoms: C_23  and  C_24
REMARK   10  A    between atoms: C_34  and  C_35
REMARK                            x       y       z     vdW  Elec       q    Type
REMARK                         _______ _______ _______ _____ _____    ______ ____
ROOT
ATOM      1  C   UNL     1     -34.070   4.460   9.241  0.00  0.00    +0.070 C 
ATOM      2  N   UNL     1     -33.827   3.189   9.103  0.00  0.00    -0.181 NA
ATOM      3  N   UNL     1     -34.513   2.278   9.876  0.00  0.00    -0.189 N 
ATOM      4  C   UNL     1     -35.681   2.573  10.570  0.00  0.00    +0.236 C 
ATOM      5  O   UNL     1     -36.310   1.760  11.248  0.00  0.00    -0.274 OA
ATOM      6  C   UNL     1     -36.189   3.978  10.385  0.00  0.00    +0.107 C 
ATOM      7  C   UNL     1     -35.046   4.973  10.286  0.00  0.00    +0.046 C 
ATOM      8  C   UNL     1     -34.335   5.166  11.626  0.00  0.00    +0.014 C 
ENDROOT
BRANCH   1  13
ATOM      9  C   UNL     1     -30.160   8.285   6.906  0.00  0.00    +0.108 A 
ATOM     10  N   UNL     1     -30.295   7.559   7.998  0.00  0.00    -0.232 NA
ATOM     11  C   UNL     1     -31.487   6.893   7.856  0.00  0.00    +0.090 A 
ATOM     12  C   UNL     1     -32.109   5.986   8.728  0.00  0.00    +0.039 A 
ATOM     13  C   UNL     1     -33.344   5.432   8.358  0.00  0.00    +0.000 A 
ATOM     14  C   UNL     1     -33.930   5.787   7.129  0.00  0.00    +0.012 A 
ATOM     15  C   UNL     1     -33.320   6.691   6.248  0.00  0.00    +0.028 A 
ATOM     16  C   UNL     1     -32.097   7.221   6.654  0.00  0.00    +0.066 A 
ATOM     17  N   UNL     1     -31.234   8.110   6.068  0.00  0.00    -0.342 N 
ATOM     18  H   UNL     1     -31.362   8.557   5.171  0.00  0.00    +0.167 HD
BRANCH   9  19
ATOM     19  C   UNL     1     -29.024   9.190   6.576  0.00  0.00    +0.074 C 
BRANCH  19  20
ATOM     20  C   UNL     1     -29.150  10.562   7.244  0.00  0.00    +0.007 C 
BRANCH  20  22
ATOM     21  C   UNL     1     -28.743  12.433   5.551  0.00  0.00    +0.004 C 
ATOM     22  C   UNL     1     -29.766  11.661   6.371  0.00  0.00    -0.003 C 
ENDBRANCH  20  22
ENDBRANCH  19  20
ENDBRANCH   9  19
ENDBRANCH   1  13
BRANCH   3  23
ATOM     23  C   UNL     1     -34.043   0.898   9.823  0.00  0.00    +0.170 C 
BRANCH  23  24
ATOM     24  C   UNL     1     -33.000   0.607  10.877  0.00  0.00    -0.028 A 
ATOM     25  C   UNL     1     -32.800   1.491  11.944  0.00  0.00    +0.006 A 
ATOM     26  C   UNL     1     -31.823   1.231  12.909  0.00  0.00    +0.009 A 
ATOM     27  C   UNL     1     -31.019   0.084  12.828  0.00  0.00    -0.017 A 
ATOM     28  C   UNL     1     -31.214  -0.791  11.749  0.00  0.00    +0.009 A 
ATOM     29  C   UNL     1     -32.190  -0.533  10.783  0.00  0.00    +0.006 A 
BRANCH  27  30
ATOM     30  C   UNL     1     -29.973  -0.175  13.831  0.00  0.00    -0.007 A 
ATOM     31  C   UNL     1     -30.339  -0.849  15.014  0.00  0.00    +0.009 A 
ATOM     32  C   UNL     1     -29.416  -1.086  16.035  0.00  0.00    +0.001 A 
ATOM     33  C   UNL     1     -28.105  -0.649  15.896  0.00  0.00    +0.001 A 
ATOM     34  C   UNL     1     -27.716   0.017  14.734  0.00  0.00    +0.012 A 
ATOM     35  C   UNL     1     -28.631   0.252  13.689  0.00  0.00    +0.030 A 
BRANCH  35  36
ATOM     36  C   UNL     1     -28.140   0.933  12.499  0.00  0.00    +0.205 A 
ATOM     37  N   UNL     1     -27.964   2.300  12.452  0.00  0.00    -0.108 NA
ATOM     38  N   UNL     1     -27.490   2.585  11.248  0.00  0.00    -0.049 NA
ATOM     39  N   UNL     1     -27.393   1.399  10.638  0.00  0.00    -0.176 N 
ATOM     40  N   UNL     1     -27.745   0.331  11.364  0.00  0.00    -0.133 NA
ATOM     41  H   UNL     1     -27.063   1.317   9.681  0.00  0.00    +0.214 HD
ENDBRANCH  35  36
ENDBRANCH  27  30
ENDBRANCH  23  24
ENDBRANCH   3  23
TORSDOF 8
ENDMDL
MODEL 3
REMARK VINA RESULT:   -12.394      1.868      8.132
REMARK INTER + INTRA:         -18.678
REMARK INTER:                 -16.880
REMARK INTRA:                  -1.798
REMARK UNBOUND:                -0.487
REMARK  Name = CHEMBL26449
REMARK  10 active torsions:
REMARK  status: ('A' for Active; 'I' for Inactive)
REMARK    1  A    between atoms: C_1  and  C_2
REMARK    2  A    between atoms: C_2  and  C_3
REMARK    3  A    between atoms: C_3  and  C_4
REMARK    4  A    between atoms: C_4  and  C_5
REMARK    5  A    between atoms: C_9  and  C_10
REMARK    6  A    between atoms: N_12  and  C_13
REMARK    7  A    between atoms: C_13  and  C_14
REMARK    8  A    between atoms: C_17  and  C_18
REMARK    9  A    between atoms: C_23  and  C_24
REMARK   10  A    between atoms: C_34  and  C_35
REMARK                            x       y       z     vdW  Elec       q    Type
REMARK                         _______ _______ _______ _____ _____    ______ ____
ROOT
ATOM      1  C   UNL     1     -33.317   4.120   9.184  0.00  0.00    +0.070 C 
ATOM      2  N   UNL     1     -32.715   3.396  10.082  0.00  0.00    -0.181 NA
ATOM      3  N   UNL     1     -33.370   2.317  10.636  0.00  0.00    -0.189 N 
ATOM      4  C   UNL     1     -34.508   1.736  10.088  0.00  0.00    +0.236 C 
ATOM      5  O   UNL     1     -35.088   0.760  10.566  0.00  0.00    -0.274 OA
ATOM      6  C   UNL     1     -34.968   2.345   8.791  0.00  0.00    +0.107 C 
ATOM      7  C   UNL     1     -34.755   3.848   8.778  0.00  0.00    +0.046 C 
ATOM      8  C   UNL     1     -35.718   4.572   9.721  0.00  0.00    +0.014 C 
ENDROOT
BRANCH   1  13
ATOM      9  C   UNL     1     -29.198   8.108   7.603  0.00  0.00    +0.108 A 
ATOM     10  N   UNL     1     -29.300   7.060   8.395  0.00  0.00    -0.232 NA
ATOM     11  C   UNL     1     -30.589   6.611   8.254  0.00  0.00    +0.090 A 
ATOM     12  C   UNL     1     -31.226   5.523   8.869  0.00  0.00    +0.039 A 
ATOM     13  C   UNL     1     -32.570   5.263   8.562  0.00  0.00    +0.000 A 
ATOM     14  C   UNL     1     -33.250   6.088   7.647  0.00  0.00    +0.012 A 
ATOM     15  C   UNL     1     -32.627   7.178   7.024  0.00  0.00    +0.028 A 
ATOM     16  C   UNL     1     -31.294   7.404   7.359  0.00  0.00    +0.066 A 
ATOM     17  N   UNL     1     -30.387   8.351   6.960  0.00  0.00    -0.342 N 
ATOM     18  H   UNL     1     -30.560   9.097   6.301  0.00  0.00    +0.167 HD
BRANCH   9  19
ATOM     19  C   UNL     1     -27.987   8.951   7.396  0.00  0.00    +0.074 C 
BRANCH  19  20
ATOM     20  C   UNL     1     -27.943   9.586   6.003  0.00  0.00    +0.007 C 
BRANCH  20  22
ATOM     21  C   UNL     1     -29.380  11.684   6.265  0.00  0.00    +0.004 C 
ATOM     22  C   UNL     1     -27.997  11.118   5.980  0.00  0.00    -0.003 C 
ENDBRANCH  20  22
ENDBRANCH  19  20
ENDBRANCH   9  19
ENDBRANCH   1  13
BRANCH   3  23
ATOM     23  C   UNL     1     -32.724   1.684  11.780  0.00  0.00    +0.170 C 
BRANCH  23  24
ATOM     24  C   UNL     1     -31.302   1.269  11.479  0.00  0.00    -0.028 A 
ATOM     25  C   UNL     1     -30.935   0.875  10.186  0.00  0.00    +0.006 A 
ATOM     26  C   UNL     1     -29.624   0.474   9.912  0.00  0.00    +0.009 A 
ATOM     27  C   UNL     1     -28.652   0.454  10.922  0.00  0.00    -0.017 A 
ATOM     28  C   UNL     1     -29.028   0.837  12.218  0.00  0.00    +0.009 A 
ATOM     29  C   UNL     1     -30.338   1.238  12.495  0.00  0.00    +0.006 A 
BRANCH  27  30
ATOM     30  C   UNL     1     -27.278   0.006  10.636  0.00  0.00    -0.007 A 
ATOM     31  C   UNL     1     -27.030  -1.380  10.574  0.00  0.00    +0.009 A 
ATOM     32  C   UNL     1     -25.746  -1.884  10.358  0.00  0.00    +0.001 A 
ATOM     33  C   UNL     1     -24.678  -1.009  10.205  0.00  0.00    +0.001 A 
ATOM     34  C   UNL     1     -24.897   0.367  10.259  0.00  0.00    +0.012 A 
ATOM     35  C   UNL     1     -26.188   0.892  10.462  0.00  0.00    +0.030 A 
BRANCH  35  36
ATOM     36  C   UNL     1     -26.335   2.340  10.481  0.00  0.00    +0.205 A 
ATOM     37  N   UNL     1     -26.802   3.047   9.393  0.00  0.00    -0.108 NA
ATOM     38  N   UNL     1     -26.834   4.323   9.749  0.00  0.00    -0.049 NA
ATOM     39  N   UNL     1     -26.403   4.327  11.015  0.00  0.00    -0.176 N 
ATOM     40  N   UNL     1     -26.110   3.132  11.543  0.00  0.00    -0.133 NA
ATOM     41  H   UNL     1     -26.312   5.189  11.545  0.00  0.00    +0.214 HD
ENDBRANCH  35  36
ENDBRANCH  27  30
ENDBRANCH  23  24
ENDBRANCH   3  23
TORSDOF 8
ENDMDL
