MODEL 1
REMARK VINA RESULT:   -13.329      0.000      0.000
REMARK INTER + INTRA:         -19.771
REMARK INTER:                 -19.173
REMARK INTRA:                  -0.599
REMARK UNBOUND:                -0.599
REMARK  Name = CHEMBL11778
REMARK  8 active torsions:
REMARK  status: ('A' for Active; 'I' for Inactive)
REMARK    1  A    between atoms: C_2  and  C_3
REMARK    2  A    between atoms: C_2  and  C_23
REMARK    3  A    between atoms: C_4  and  C_5
REMARK    4  A    between atoms: C_9  and  O_10
REMARK    5  A    between atoms: O_10  and  C_11
REMARK    6  A    between atoms: C_11  and  C_12
REMARK    7  A    between atoms: C_25  and  C_26
REMARK    8  A    between atoms: C_33  and  O_34
REMARK                            x       y       z     vdW  Elec       q    Type
REMARK                         _______ _______ _______ _____ _____    ______ ____
ROOT
ATOM      1  C   UNL     1      -3.649 -12.836 -51.303  0.00  0.00    +0.052 C 
ATOM      2  C   UNL     1      -4.816 -12.442 -51.834  0.00  0.00    +0.012 C 
ENDROOT
BRANCH   2   3
ATOM      3  C   UNL     1      -5.608 -13.271 -52.754  0.00  0.00    -0.021 A 
ATOM      4  C   UNL     1      -7.001 -13.278 -52.627  0.00  0.00    +0.008 A 
ATOM      5  C   UNL     1      -7.787 -14.033 -53.499  0.00  0.00    +0.004 A 
ATOM      6  C   UNL     1      -7.190 -14.781 -54.516  0.00  0.00    +0.046 A 
ATOM      7  C   UNL     1      -5.804 -14.772 -54.667  0.00  0.00    +0.122 A 
ATOM      8  C   UNL     1      -5.022 -14.013 -53.788  0.00  0.00    +0.053 A 
BRANCH   7   9
ATOM      9  O   UNL     1      -5.093 -15.447 -55.619  0.00  0.00    -0.487 OA
BRANCH   9  10
ATOM     10  C   UNL     1      -5.327 -15.094 -56.982  0.00  0.00    +0.264 C 
BRANCH  10  11
ATOM     11  C   UNL     1      -4.310 -15.789 -57.856  0.00  0.00    -0.010 A 
ATOM     12  C   UNL     1      -3.964 -15.261 -59.107  0.00  0.00    +0.007 A 
ATOM     13  C   UNL     1      -3.002 -15.887 -59.902  0.00  0.00    +0.009 A 
ATOM     14  C   UNL     1      -2.357 -17.052 -59.464  0.00  0.00    -0.018 A 
ATOM     15  C   UNL     1      -1.387 -17.693 -60.252  0.00  0.00    +0.008 A 
ATOM     16  C   UNL     1      -0.753 -18.852 -59.802  0.00  0.00    +0.001 A 
ATOM     17  C   UNL     1      -1.081 -19.384 -58.558  0.00  0.00    +0.001 A 
ATOM     18  C   UNL     1      -2.042 -18.759 -57.763  0.00  0.00    +0.008 A 
ATOM     19  C   UNL     1      -2.690 -17.592 -58.201  0.00  0.00    -0.018 A 
ATOM     20  C   UNL     1      -3.661 -16.951 -57.412  0.00  0.00    +0.015 A 
ENDBRANCH  10  11
ENDBRANCH   9  10
ENDBRANCH   7   9
ENDBRANCH   2   3
BRANCH   1  22
ATOM     21  O   UNL     1      -2.541 -10.857 -50.679  0.00  0.00    -0.287 OA
ATOM     22  C   UNL     1      -2.810 -12.019 -50.386  0.00  0.00    +0.190 C 
BRANCH  22  23
ATOM     23  C   UNL     1      -2.339 -12.567 -49.098  0.00  0.00    +0.064 A 
ATOM     24  C   UNL     1      -0.968 -12.468 -48.816  0.00  0.00    +0.027 A 
ATOM     25  C   UNL     1      -0.450 -12.985 -47.620  0.00  0.00    +0.024 A 
ATOM     26  C   UNL     1      -1.324 -13.615 -46.721  0.00  0.00    +0.015 A 
ATOM     27  C   UNL     1      -2.687 -13.738 -47.012  0.00  0.00    +0.047 A 
ATOM     28  C   UNL     1      -3.191 -13.220 -48.202  0.00  0.00    +0.128 A 
BRANCH  25  29
ATOM     29  C   UNL     1       0.971 -12.873 -47.313  0.00  0.00    +0.204 A 
ATOM     30  N   UNL     1       1.948 -13.503 -48.050  0.00  0.00    -0.108 NA
ATOM     31  N   UNL     1       3.111 -13.188 -47.497  0.00  0.00    -0.049 NA
ATOM     32  N   UNL     1       2.789 -12.398 -46.468  0.00  0.00    -0.176 N 
ATOM     33  N   UNL     1       1.481 -12.166 -46.289  0.00  0.00    -0.133 NA
ATOM     34  H   UNL     1       3.498 -11.999 -45.859  0.00  0.00    +0.214 HD
ENDBRANCH  25  29
BRANCH  28  35
ATOM     35  O   UNL     1      -4.516 -13.369 -48.496  0.00  0.00    -0.506 OA
ATOM     36  H   UNL     1      -4.969 -13.802 -47.753  0.00  0.00    +0.292 HD
ENDBRANCH  28  35
ENDBRANCH  22  23
ENDBRANCH   1  22
TORSDOF 8
ENDMDL
MODEL 2
REMARK VINA RESULT:   -13.257      6.392     11.331
REMARK INTER + INTRA:         -19.669
REMARK INTER:                 -18.410
REMARK INTRA:                  -1.259
REMARK UNBOUND:                -0.599
REMARK  Name = CHEMBL11778
REMARK  8 active torsions:
REMARK  status: ('A' for Active; 'I' for Inactive)
REMARK    1  A    between atoms: C_2  and  C_3
REMARK    2  A    between atoms: C_2  and  C_23
REMARK    3  A    between atoms: C_4  and  C_5
REMARK    4  A    between atoms: C_9  and  O_10
REMARK    5  A    between atoms: O_10  and  C_11
REMARK    6  A    between atoms: C_11  and  C_12
REMARK    7  A    between atoms: C_25  and  C_26
REMARK    8  A    between atoms: C_33  and  O_34
REMARK                            x       y       z     vdW  Elec       q    Type
REMARK                         _______ _______ _______ _____ _____    ______ ____
ROOT
ATOM      1  C   UNL     1      -3.628 -17.140 -57.760  0.00  0.00    +0.052 C 
ATOM      2  C   UNL     1      -3.804 -15.853 -57.422  0.00  0.00    +0.012 C 
ENDROOT
BRANCH   2   3
ATOM      3  C   UNL     1      -5.067 -15.322 -56.889  0.00  0.00    -0.021 A 
ATOM      4  C   UNL     1      -6.159 -15.184 -57.750  0.00  0.00    +0.008 A 
ATOM      5  C   UNL     1      -7.381 -14.708 -57.273  0.00  0.00    +0.004 A 
ATOM      6  C   UNL     1      -7.529 -14.375 -55.925  0.00  0.00    +0.046 A 
ATOM      7  C   UNL     1      -6.455 -14.523 -55.049  0.00  0.00    +0.122 A 
ATOM      8  C   UNL     1      -5.232 -15.001 -55.535  0.00  0.00    +0.053 A 
BRANCH   7   9
ATOM      9  O   UNL     1      -6.462 -14.245 -53.710  0.00  0.00    -0.487 OA
BRANCH   9  10
ATOM     10  C   UNL     1      -6.696 -12.890 -53.326  0.00  0.00    +0.264 C 
BRANCH  10  11
ATOM     11  C   UNL     1      -5.500 -12.379 -52.558  0.00  0.00    -0.010 A 
ATOM     12  C   UNL     1      -5.438 -11.044 -52.138  0.00  0.00    +0.007 A 
ATOM     13  C   UNL     1      -4.346 -10.579 -51.403  0.00  0.00    +0.009 A 
ATOM     14  C   UNL     1      -3.292 -11.439 -51.062  0.00  0.00    -0.018 A 
ATOM     15  C   UNL     1      -2.187 -10.987 -50.322  0.00  0.00    +0.008 A 
ATOM     16  C   UNL     1      -1.146 -11.855 -49.991  0.00  0.00    +0.001 A 
ATOM     17  C   UNL     1      -1.197 -13.186 -50.394  0.00  0.00    +0.001 A 
ATOM     18  C   UNL     1      -2.288 -13.651 -51.130  0.00  0.00    +0.008 A 
ATOM     19  C   UNL     1      -3.344 -12.791 -51.472  0.00  0.00    -0.018 A 
ATOM     20  C   UNL     1      -4.449 -13.244 -52.212  0.00  0.00    +0.015 A 
ENDBRANCH  10  11
ENDBRANCH   9  10
ENDBRANCH   7   9
ENDBRANCH   2   3
BRANCH   1  22
ATOM     21  O   UNL     1      -1.568 -18.259 -57.573  0.00  0.00    -0.287 OA
ATOM     22  C   UNL     1      -2.374 -17.710 -58.320  0.00  0.00    +0.190 C 
BRANCH  22  23
ATOM     23  C   UNL     1      -2.106 -17.676 -59.772  0.00  0.00    +0.064 A 
ATOM     24  C   UNL     1      -3.167 -17.317 -60.616  0.00  0.00    +0.027 A 
ATOM     25  C   UNL     1      -2.989 -17.282 -62.006  0.00  0.00    +0.024 A 
ATOM     26  C   UNL     1      -1.735 -17.628 -62.536  0.00  0.00    +0.015 A 
ATOM     27  C   UNL     1      -0.683 -18.010 -61.697  0.00  0.00    +0.047 A 
ATOM     28  C   UNL     1      -0.872 -18.040 -60.317  0.00  0.00    +0.128 A 
BRANCH  25  29
ATOM     29  C   UNL     1      -4.082 -16.897 -62.890  0.00  0.00    +0.204 A 
ATOM     30  N   UNL     1      -4.453 -17.638 -63.990  0.00  0.00    -0.108 NA
ATOM     31  N   UNL     1      -5.468 -17.003 -64.558  0.00  0.00    -0.049 NA
ATOM     32  N   UNL     1      -5.660 -15.925 -63.790  0.00  0.00    -0.176 N 
ATOM     33  N   UNL     1      -4.833 -15.790 -62.744  0.00  0.00    -0.133 NA
ATOM     34  H   UNL     1      -6.392 -15.249 -63.993  0.00  0.00    +0.214 HD
ENDBRANCH  25  29
BRANCH  28  35
ATOM     35  O   UNL     1       0.148 -18.444 -59.505  0.00  0.00    -0.506 OA
ATOM     36  H   UNL     1       0.022 -18.076 -58.614  0.00  0.00    +0.292 HD
ENDBRANCH  28  35
ENDBRANCH  22  23
ENDBRANCH   1  22
TORSDOF 8
ENDMDL
MODEL 3
REMARK VINA RESULT:   -12.737      6.403     11.125
REMARK INTER + INTRA:         -18.920
REMARK INTER:                 -17.712
REMARK INTRA:                  -1.208
REMARK UNBOUND:                -0.599
REMARK  Name = CHEMBL11778
REMARK  8 active torsions:
REMARK  status: ('A' for Active; 'I' for Inactive)
REMARK    1  A    between atoms: C_2  and  C_3
REMARK    2  A    between atoms: C_2  and  C_23
REMARK    3  A    between atoms: C_4  and  C_5
REMARK    4  A    between atoms: C_9  and  O_10
REMARK    5  A    between atoms: O_10  and  C_11
REMARK    6  A    between atoms: C_11  and  C_12
REMARK    7  A    between atoms: C_25  and  C_26
REMARK    8  A    between atoms: C_33  and  O_34
REMARK                            x       y       z     vdW  Elec       q    Type
REMARK                         _______ _______ _______ _____ _____    ______ ____
ROOT
ATOM      1  C   UNL     1      -3.364 -16.976 -57.540  0.00  0.00    +0.052 C 
ATOM      2  C   UNL     1      -3.581 -15.748 -57.045  0.00  0.00    +0.012 C 
ENDROOT
BRANCH   2   3
ATOM      3  C   UNL     1      -4.920 -15.214 -56.761  0.00  0.00    -0.021 A 
ATOM      4  C   UNL     1      -5.906 -15.301 -57.749  0.00  0.00    +0.008 A 
ATOM      5  C   UNL     1      -7.196 -14.828 -57.505  0.00  0.00    +0.004 A 
ATOM      6  C   UNL     1      -7.520 -14.273 -56.266  0.00  0.00    +0.046 A 
ATOM      7  C   UNL     1      -6.554 -14.194 -55.263  0.00  0.00    +0.122 A 
ATOM      8  C   UNL     1      -5.262 -14.670 -55.515  0.00  0.00    +0.053 A 
BRANCH   7   9
ATOM      9  O   UNL     1      -6.736 -13.685 -54.007  0.00  0.00    -0.487 OA
BRANCH   9  10
ATOM     10  C   UNL     1      -6.658 -12.267 -53.860  0.00  0.00    +0.264 C 
BRANCH  10  11
ATOM     11  C   UNL     1      -5.513 -11.928 -52.935  0.00  0.00    -0.010 A 
ATOM     12  C   UNL     1      -5.417 -10.655 -52.357  0.00  0.00    +0.007 A 
ATOM     13  C   UNL     1      -4.375 -10.350 -51.479  0.00  0.00    +0.009 A 
ATOM     14  C   UNL     1      -3.408 -11.311 -51.151  0.00  0.00    -0.018 A 
ATOM     15  C   UNL     1      -2.355 -11.019 -50.269  0.00  0.00    +0.008 A 
ATOM     16  C   UNL     1      -1.400 -11.986 -49.953  0.00  0.00    +0.001 A 
ATOM     17  C   UNL     1      -1.487 -13.257 -50.513  0.00  0.00    +0.001 A 
ATOM     18  C   UNL     1      -2.528 -13.563 -51.391  0.00  0.00    +0.008 A 
ATOM     19  C   UNL     1      -3.497 -12.601 -51.721  0.00  0.00    -0.018 A 
ATOM     20  C   UNL     1      -4.551 -12.894 -52.603  0.00  0.00    +0.015 A 
ENDBRANCH  10  11
ENDBRANCH   9  10
ENDBRANCH   7   9
ENDBRANCH   2   3
BRANCH   1  22
ATOM     21  O   UNL     1      -1.270 -17.865 -56.947  0.00  0.00    -0.287 OA
ATOM     22  C   UNL     1      -2.027 -17.544 -57.859  0.00  0.00    +0.190 C 
BRANCH  22  23
ATOM     23  C   UNL     1      -1.616 -17.779 -59.257  0.00  0.00    +0.064 A 
ATOM     24  C   UNL     1      -2.116 -18.925 -59.893  0.00  0.00    +0.027 A 
ATOM     25  C   UNL     1      -1.751 -19.221 -61.215  0.00  0.00    +0.024 A 
ATOM     26  C   UNL     1      -0.866 -18.358 -61.880  0.00  0.00    +0.015 A 
ATOM     27  C   UNL     1      -0.346 -17.229 -61.239  0.00  0.00    +0.047 A 
ATOM     28  C   UNL     1      -0.717 -16.945 -59.926  0.00  0.00    +0.128 A 
BRANCH  25  29
ATOM     29  C   UNL     1      -2.277 -20.401 -61.888  0.00  0.00    +0.204 A 
ATOM     30  N   UNL     1      -3.100 -21.313 -61.267  0.00  0.00    -0.108 NA
ATOM     31  N   UNL     1      -3.384 -22.249 -62.162  0.00  0.00    -0.049 NA
ATOM     32  N   UNL     1      -2.729 -21.867 -63.264  0.00  0.00    -0.176 N 
ATOM     33  N   UNL     1      -2.017 -20.736 -63.165  0.00  0.00    -0.133 NA
ATOM     34  H   UNL     1      -2.772 -22.407 -64.124  0.00  0.00    +0.214 HD
ENDBRANCH  25  29
BRANCH  28  35
ATOM     35  O   UNL     1      -0.183 -15.859 -59.294  0.00  0.00    -0.506 OA
ATOM     36  H   UNL     1      -0.654 -15.055 -59.571  0.00  0.00    +0.292 HD
ENDBRANCH  28  35
ENDBRANCH  22  23
ENDBRANCH   1  22
TORSDOF 8
ENDMDL
