MODEL 1
REMARK VINA RESULT:   -10.706      0.000      0.000
REMARK INTER + INTRA:         -16.774
REMARK INTER:                 -15.400
REMARK INTRA:                  -1.374
REMARK UNBOUND:                -1.374
REMARK  Name = CHEMBL11778
REMARK  8 active torsions:
REMARK  status: ('A' for Active; 'I' for Inactive)
REMARK    1  A    between atoms: C_2  and  C_3
REMARK    2  A    between atoms: C_2  and  C_23
REMARK    3  A    between atoms: C_4  and  C_5
REMARK    4  A    between atoms: C_9  and  O_10
REMARK    5  A    between atoms: O_10  and  C_11
REMARK    6  A    between atoms: C_11  and  C_12
REMARK    7  A    between atoms: C_25  and  C_26
REMARK    8  A    between atoms: C_33  and  O_34
REMARK                            x       y       z     vdW  Elec       q    Type
REMARK                         _______ _______ _______ _____ _____    ______ ____
ROOT
ATOM      1  C   UNL     1      21.559   6.417 -11.396  0.00  0.00    +0.052 C 
ATOM      2  C   UNL     1      21.487   6.402 -10.056  0.00  0.00    +0.012 C 
ENDROOT
BRANCH   2   3
ATOM      3  C   UNL     1      20.510   5.600  -9.307  0.00  0.00    -0.021 A 
ATOM      4  C   UNL     1      19.927   6.144  -8.158  0.00  0.00    +0.008 A 
ATOM      5  C   UNL     1      18.976   5.422  -7.436  0.00  0.00    +0.004 A 
ATOM      6  C   UNL     1      18.587   4.150  -7.861  0.00  0.00    +0.046 A 
ATOM      7  C   UNL     1      19.146   3.599  -9.013  0.00  0.00    +0.122 A 
ATOM      8  C   UNL     1      20.099   4.329  -9.732  0.00  0.00    +0.053 A 
BRANCH   7   9
ATOM      9  O   UNL     1      18.852   2.374  -9.545  0.00  0.00    -0.487 OA
BRANCH   9  10
ATOM     10  C   UNL     1      19.259   2.132 -10.892  0.00  0.00    +0.264 C 
BRANCH  10  11
ATOM     11  C   UNL     1      18.119   2.473 -11.823  0.00  0.00    -0.010 A 
ATOM     12  C   UNL     1      16.804   2.109 -11.503  0.00  0.00    +0.007 A 
ATOM     13  C   UNL     1      15.746   2.449 -12.349  0.00  0.00    +0.009 A 
ATOM     14  C   UNL     1      15.975   3.169 -13.530  0.00  0.00    -0.018 A 
ATOM     15  C   UNL     1      14.922   3.519 -14.390  0.00  0.00    +0.008 A 
ATOM     16  C   UNL     1      15.166   4.235 -15.563  0.00  0.00    +0.001 A 
ATOM     17  C   UNL     1      16.465   4.611 -15.890  0.00  0.00    +0.001 A 
ATOM     18  C   UNL     1      17.523   4.270 -15.045  0.00  0.00    +0.008 A 
ATOM     19  C   UNL     1      17.295   3.549 -13.862  0.00  0.00    -0.018 A 
ATOM     20  C   UNL     1      18.350   3.199 -13.001  0.00  0.00    +0.015 A 
ENDBRANCH  10  11
ENDBRANCH   9  10
ENDBRANCH   7   9
ENDBRANCH   2   3
BRANCH   1  22
ATOM     21  O   UNL     1      23.617   6.763 -12.479  0.00  0.00    -0.287 OA
ATOM     22  C   UNL     1      22.519   7.230 -12.190  0.00  0.00    +0.190 C 
BRANCH  22  23
ATOM     23  C   UNL     1      22.151   8.571 -12.684  0.00  0.00    +0.064 A 
ATOM     24  C   UNL     1      21.885   8.705 -14.055  0.00  0.00    +0.027 A 
ATOM     25  C   UNL     1      21.549   9.954 -14.595  0.00  0.00    +0.024 A 
ATOM     26  C   UNL     1      21.499  11.068 -13.742  0.00  0.00    +0.015 A 
ATOM     27  C   UNL     1      21.788  10.942 -12.379  0.00  0.00    +0.047 A 
ATOM     28  C   UNL     1      22.120   9.695 -11.853  0.00  0.00    +0.128 A 
BRANCH  25  29
ATOM     29  C   UNL     1      21.257  10.100 -16.015  0.00  0.00    +0.204 A 
ATOM     30  N   UNL     1      20.531   9.172 -16.729  0.00  0.00    -0.108 NA
ATOM     31  N   UNL     1      20.460   9.616 -17.976  0.00  0.00    -0.049 NA
ATOM     32  N   UNL     1      21.135  10.770 -17.960  0.00  0.00    -0.176 N 
ATOM     33  N   UNL     1      21.663  11.129 -16.781  0.00  0.00    -0.133 NA
ATOM     34  H   UNL     1      21.240  11.339 -18.796  0.00  0.00    +0.214 HD
ENDBRANCH  25  29
BRANCH  28  35
ATOM     35  O   UNL     1      22.432   9.583 -10.529  0.00  0.00    -0.506 OA
ATOM     36  H   UNL     1      22.320  10.444 -10.092  0.00  0.00    +0.292 HD
ENDBRANCH  28  35
ENDBRANCH  22  23
ENDBRANCH   1  22
TORSDOF 8
ENDMDL
MODEL 2
REMARK VINA RESULT:   -10.548      4.657      9.314
REMARK INTER + INTRA:         -16.547
REMARK INTER:                 -15.744
REMARK INTRA:                  -0.803
REMARK UNBOUND:                -1.374
REMARK  Name = CHEMBL11778
REMARK  8 active torsions:
REMARK  status: ('A' for Active; 'I' for Inactive)
REMARK    1  A    between atoms: C_2  and  C_3
REMARK    2  A    between atoms: C_2  and  C_23
REMARK    3  A    between atoms: C_4  and  C_5
REMARK    4  A    between atoms: C_9  and  O_10
REMARK    5  A    between atoms: O_10  and  C_11
REMARK    6  A    between atoms: C_11  and  C_12
REMARK    7  A    between atoms: C_25  and  C_26
REMARK    8  A    between atoms: C_33  and  O_34
REMARK                            x       y       z     vdW  Elec       q    Type
REMARK                         _______ _______ _______ _____ _____    ______ ____
ROOT
ATOM      1  C   UNL     1      21.144   7.134 -11.759  0.00  0.00    +0.052 C 
ATOM      2  C   UNL     1      22.357   7.670 -11.958  0.00  0.00    +0.012 C 
ENDROOT
BRANCH   2   3
ATOM      3  C   UNL     1      22.568   9.064 -12.374  0.00  0.00    -0.021 A 
ATOM      4  C   UNL     1      22.397  10.083 -11.432  0.00  0.00    +0.008 A 
ATOM      5  C   UNL     1      22.615  11.416 -11.784  0.00  0.00    +0.004 A 
ATOM      6  C   UNL     1      23.018  11.745 -13.080  0.00  0.00    +0.046 A 
ATOM      7  C   UNL     1      23.209  10.740 -14.027  0.00  0.00    +0.122 A 
ATOM      8  C   UNL     1      22.988   9.405 -13.667  0.00  0.00    +0.053 A 
BRANCH   7   9
ATOM      9  O   UNL     1      23.608  10.918 -15.323  0.00  0.00    -0.487 OA
BRANCH   9  10
ATOM     10  C   UNL     1      23.165   9.956 -16.280  0.00  0.00    +0.264 C 
BRANCH  10  11
ATOM     11  C   UNL     1      22.342  10.654 -17.338  0.00  0.00    -0.010 A 
ATOM     12  C   UNL     1      21.188  10.051 -17.855  0.00  0.00    +0.007 A 
ATOM     13  C   UNL     1      20.411  10.707 -18.812  0.00  0.00    +0.009 A 
ATOM     14  C   UNL     1      20.763  11.985 -19.269  0.00  0.00    -0.018 A 
ATOM     15  C   UNL     1      19.991  12.658 -20.229  0.00  0.00    +0.008 A 
ATOM     16  C   UNL     1      20.355  13.930 -20.674  0.00  0.00    +0.001 A 
ATOM     17  C   UNL     1      21.494  14.545 -20.163  0.00  0.00    +0.001 A 
ATOM     18  C   UNL     1      22.272  13.889 -19.208  0.00  0.00    +0.008 A 
ATOM     19  C   UNL     1      21.920  12.609 -18.750  0.00  0.00    -0.018 A 
ATOM     20  C   UNL     1      22.693  11.936 -17.788  0.00  0.00    +0.015 A 
ENDBRANCH  10  11
ENDBRANCH   9  10
ENDBRANCH   7   9
ENDBRANCH   2   3
BRANCH   1  22
ATOM     21  O   UNL     1      21.420   4.809 -11.980  0.00  0.00    -0.287 OA
ATOM     22  C   UNL     1      20.889   5.725 -11.357  0.00  0.00    +0.190 C 
BRANCH  22  23
ATOM     23  C   UNL     1      20.048   5.410 -10.185  0.00  0.00    +0.064 A 
ATOM     24  C   UNL     1      18.992   4.505 -10.371  0.00  0.00    +0.027 A 
ATOM     25  C   UNL     1      18.143   4.176  -9.306  0.00  0.00    +0.024 A 
ATOM     26  C   UNL     1      18.359   4.780  -8.057  0.00  0.00    +0.015 A 
ATOM     27  C   UNL     1      19.395   5.701  -7.876  0.00  0.00    +0.047 A 
ATOM     28  C   UNL     1      20.234   6.020  -8.941  0.00  0.00    +0.128 A 
BRANCH  25  29
ATOM     29  C   UNL     1      17.052   3.226  -9.487  0.00  0.00    +0.204 A 
ATOM     30  N   UNL     1      16.474   2.542  -8.441  0.00  0.00    -0.108 NA
ATOM     31  N   UNL     1      15.527   1.773  -8.960  0.00  0.00    -0.049 NA
ATOM     32  N   UNL     1      15.576   2.022 -10.273  0.00  0.00    -0.176 N 
ATOM     33  N   UNL     1      16.502   2.906 -10.672  0.00  0.00    -0.133 NA
ATOM     34  H   UNL     1      14.946   1.565 -10.927  0.00  0.00    +0.214 HD
ENDBRANCH  25  29
BRANCH  28  35
ATOM     35  O   UNL     1      21.225   6.943  -8.768  0.00  0.00    -0.506 OA
ATOM     36  H   UNL     1      21.021   7.742  -9.283  0.00  0.00    +0.292 HD
ENDBRANCH  28  35
ENDBRANCH  22  23
ENDBRANCH   1  22
TORSDOF 8
ENDMDL
MODEL 3
REMARK VINA RESULT:   -10.173      1.418      2.689
REMARK INTER + INTRA:         -16.008
REMARK INTER:                 -14.670
REMARK INTRA:                  -1.338
REMARK UNBOUND:                -1.374
REMARK  Name = CHEMBL11778
REMARK  8 active torsions:
REMARK  status: ('A' for Active; 'I' for Inactive)
REMARK    1  A    between atoms: C_2  and  C_3
REMARK    2  A    between atoms: C_2  and  C_23
REMARK    3  A    between atoms: C_4  and  C_5
REMARK    4  A    between atoms: C_9  and  O_10
REMARK    5  A    between atoms: O_10  and  C_11
REMARK    6  A    between atoms: C_11  and  C_12
REMARK    7  A    between atoms: C_25  and  C_26
REMARK    8  A    between atoms: C_33  and  O_34
REMARK                            x       y       z     vdW  Elec       q    Type
REMARK                         _______ _______ _______ _____ _____    ______ ____
ROOT
ATOM      1  C   UNL     1      21.315   6.297 -11.318  0.00  0.00    +0.052 C 
ATOM      2  C   UNL     1      21.322   6.168  -9.983  0.00  0.00    +0.012 C 
ENDROOT
BRANCH   2   3
ATOM      3  C   UNL     1      20.307   5.411  -9.237  0.00  0.00    -0.021 A 
ATOM      4  C   UNL     1      20.585   5.021  -7.923  0.00  0.00    +0.008 A 
ATOM      5  C   UNL     1      19.634   4.324  -7.176  0.00  0.00    +0.004 A 
ATOM      6  C   UNL     1      18.390   4.018  -7.729  0.00  0.00    +0.046 A 
ATOM      7  C   UNL     1      18.090   4.414  -9.032  0.00  0.00    +0.122 A 
ATOM      8  C   UNL     1      19.048   5.112  -9.776  0.00  0.00    +0.053 A 
BRANCH   7   9
ATOM      9  O   UNL     1      16.914   4.190  -9.693  0.00  0.00    -0.487 OA
BRANCH   9  10
ATOM     10  C   UNL     1      16.790   2.959 -10.406  0.00  0.00    +0.264 C 
BRANCH  10  11
ATOM     11  C   UNL     1      17.815   2.924 -11.515  0.00  0.00    -0.010 A 
ATOM     12  C   UNL     1      17.572   3.574 -12.731  0.00  0.00    +0.007 A 
ATOM     13  C   UNL     1      18.531   3.567 -13.746  0.00  0.00    +0.009 A 
ATOM     14  C   UNL     1      19.760   2.916 -13.567  0.00  0.00    -0.018 A 
ATOM     15  C   UNL     1      20.735   2.901 -14.578  0.00  0.00    +0.008 A 
ATOM     16  C   UNL     1      21.953   2.249 -14.384  0.00  0.00    +0.001 A 
ATOM     17  C   UNL     1      22.212   1.604 -13.177  0.00  0.00    +0.001 A 
ATOM     18  C   UNL     1      21.254   1.611 -12.163  0.00  0.00    +0.008 A 
ATOM     19  C   UNL     1      20.022   2.262 -12.342  0.00  0.00    -0.018 A 
ATOM     20  C   UNL     1      19.047   2.277 -11.330  0.00  0.00    +0.015 A 
ENDBRANCH  10  11
ENDBRANCH   9  10
ENDBRANCH   7   9
ENDBRANCH   2   3
BRANCH   1  22
ATOM     21  O   UNL     1      23.384   6.551 -12.407  0.00  0.00    -0.287 OA
ATOM     22  C   UNL     1      22.312   7.070 -12.106  0.00  0.00    +0.190 C 
BRANCH  22  23
ATOM     23  C   UNL     1      22.011   8.435 -12.580  0.00  0.00    +0.064 A 
ATOM     24  C   UNL     1      21.690   8.592 -13.937  0.00  0.00    +0.027 A 
ATOM     25  C   UNL     1      21.413   9.864 -14.458  0.00  0.00    +0.024 A 
ATOM     26  C   UNL     1      21.478  10.975 -13.602  0.00  0.00    +0.015 A 
ATOM     27  C   UNL     1      21.822  10.824 -12.255  0.00  0.00    +0.047 A 
ATOM     28  C   UNL     1      22.095   9.555 -11.747  0.00  0.00    +0.128 A 
BRANCH  25  29
ATOM     29  C   UNL     1      21.065  10.035 -15.863  0.00  0.00    +0.204 A 
ATOM     30  N   UNL     1      21.447  11.132 -16.601  0.00  0.00    -0.108 NA
ATOM     31  N   UNL     1      20.964  10.962 -17.824  0.00  0.00    -0.049 NA
ATOM     32  N   UNL     1      20.322   9.790 -17.770  0.00  0.00    -0.176 N 
ATOM     33  N   UNL     1      20.336   9.164 -16.585  0.00  0.00    -0.133 NA
ATOM     34  H   UNL     1      19.851   9.401 -18.582  0.00  0.00    +0.214 HD
ENDBRANCH  25  29
BRANCH  28  35
ATOM     35  O   UNL     1      22.461   9.416 -10.440  0.00  0.00    -0.506 OA
ATOM     36  H   UNL     1      23.430   9.420 -10.369  0.00  0.00    +0.292 HD
ENDBRANCH  28  35
ENDBRANCH  22  23
ENDBRANCH   1  22
TORSDOF 8
ENDMDL
