MODEL 1
REMARK VINA RESULT:   -13.054      0.000      0.000
REMARK INTER + INTRA:         -19.480
REMARK INTER:                 -18.777
REMARK INTRA:                  -0.703
REMARK UNBOUND:                -0.703
REMARK  Name = CHEMBL11778
REMARK  8 active torsions:
REMARK  status: ('A' for Active; 'I' for Inactive)
REMARK    1  A    between atoms: C_2  and  C_3
REMARK    2  A    between atoms: C_2  and  C_23
REMARK    3  A    between atoms: C_4  and  C_5
REMARK    4  A    between atoms: C_9  and  O_10
REMARK    5  A    between atoms: O_10  and  C_11
REMARK    6  A    between atoms: C_11  and  C_12
REMARK    7  A    between atoms: C_25  and  C_26
REMARK    8  A    between atoms: C_33  and  O_34
REMARK                            x       y       z     vdW  Elec       q    Type
REMARK                         _______ _______ _______ _____ _____    ______ ____
ROOT
ATOM      1  C   UNL     1      -3.787 -13.085 -51.542  0.00  0.00    +0.052 C 
ATOM      2  C   UNL     1      -4.994 -12.711 -51.994  0.00  0.00    +0.012 C 
ENDROOT
BRANCH   2   3
ATOM      3  C   UNL     1      -5.838 -13.561 -52.846  0.00  0.00    -0.021 A 
ATOM      4  C   UNL     1      -7.214 -13.607 -52.602  0.00  0.00    +0.008 A 
ATOM      5  C   UNL     1      -8.050 -14.383 -53.407  0.00  0.00    +0.004 A 
ATOM      6  C   UNL     1      -7.521 -15.112 -54.473  0.00  0.00    +0.046 A 
ATOM      7  C   UNL     1      -6.153 -15.064 -54.741  0.00  0.00    +0.122 A 
ATOM      8  C   UNL     1      -5.321 -14.285 -53.929  0.00  0.00    +0.053 A 
BRANCH   7   9
ATOM      9  O   UNL     1      -5.507 -15.718 -55.753  0.00  0.00    -0.487 OA
BRANCH   9  10
ATOM     10  C   UNL     1      -4.718 -14.928 -56.642  0.00  0.00    +0.264 C 
BRANCH  10  11
ATOM     11  C   UNL     1      -4.093 -15.827 -57.683  0.00  0.00    -0.010 A 
ATOM     12  C   UNL     1      -3.989 -15.410 -59.016  0.00  0.00    +0.007 A 
ATOM     13  C   UNL     1      -3.386 -16.229 -59.972  0.00  0.00    +0.009 A 
ATOM     14  C   UNL     1      -2.864 -17.482 -59.619  0.00  0.00    -0.018 A 
ATOM     15  C   UNL     1      -2.254 -18.316 -60.569  0.00  0.00    +0.008 A 
ATOM     16  C   UNL     1      -1.740 -19.560 -60.201  0.00  0.00    +0.001 A 
ATOM     17  C   UNL     1      -1.828 -19.985 -58.878  0.00  0.00    +0.001 A 
ATOM     18  C   UNL     1      -2.432 -19.167 -57.922  0.00  0.00    +0.008 A 
ATOM     19  C   UNL     1      -2.955 -17.912 -58.275  0.00  0.00    -0.018 A 
ATOM     20  C   UNL     1      -3.566 -17.077 -57.324  0.00  0.00    +0.015 A 
ENDBRANCH  10  11
ENDBRANCH   9  10
ENDBRANCH   7   9
ENDBRANCH   2   3
BRANCH   1  22
ATOM     21  O   UNL     1      -2.645 -11.093 -51.033  0.00  0.00    -0.287 OA
ATOM     22  C   UNL     1      -2.896 -12.247 -50.695  0.00  0.00    +0.190 C 
BRANCH  22  23
ATOM     23  C   UNL     1      -2.352 -12.763 -49.424  0.00  0.00    +0.064 A 
ATOM     24  C   UNL     1      -0.957 -12.772 -49.274  0.00  0.00    +0.027 A 
ATOM     25  C   UNL     1      -0.372 -13.267 -48.100  0.00  0.00    +0.024 A 
ATOM     26  C   UNL     1      -1.206 -13.766 -47.087  0.00  0.00    +0.015 A 
ATOM     27  C   UNL     1      -2.596 -13.782 -47.245  0.00  0.00    +0.047 A 
ATOM     28  C   UNL     1      -3.167 -13.287 -48.415  0.00  0.00    +0.128 A 
BRANCH  25  29
ATOM     29  C   UNL     1       1.076 -13.266 -47.930  0.00  0.00    +0.204 A 
ATOM     30  N   UNL     1       1.923 -14.003 -48.727  0.00  0.00    -0.108 NA
ATOM     31  N   UNL     1       3.155 -13.770 -48.297  0.00  0.00    -0.049 NA
ATOM     32  N   UNL     1       2.999 -12.919 -47.277  0.00  0.00    -0.176 N 
ATOM     33  N   UNL     1       1.737 -12.569 -46.988  0.00  0.00    -0.133 NA
ATOM     34  H   UNL     1       3.793 -12.561 -46.754  0.00  0.00    +0.214 HD
ENDBRANCH  25  29
BRANCH  28  35
ATOM     35  O   UNL     1      -4.521 -13.333 -48.578  0.00  0.00    -0.506 OA
ATOM     36  H   UNL     1      -4.750 -14.024 -49.222  0.00  0.00    +0.292 HD
ENDBRANCH  28  35
ENDBRANCH  22  23
ENDBRANCH   1  22
TORSDOF 8
ENDMDL
MODEL 2
REMARK VINA RESULT:   -13.032      3.379      8.569
REMARK INTER + INTRA:         -19.449
REMARK INTER:                 -18.009
REMARK INTRA:                  -1.440
REMARK UNBOUND:                -0.703
REMARK  Name = CHEMBL11778
REMARK  8 active torsions:
REMARK  status: ('A' for Active; 'I' for Inactive)
REMARK    1  A    between atoms: C_2  and  C_3
REMARK    2  A    between atoms: C_2  and  C_23
REMARK    3  A    between atoms: C_4  and  C_5
REMARK    4  A    between atoms: C_9  and  O_10
REMARK    5  A    between atoms: O_10  and  C_11
REMARK    6  A    between atoms: C_11  and  C_12
REMARK    7  A    between atoms: C_25  and  C_26
REMARK    8  A    between atoms: C_33  and  O_34
REMARK                            x       y       z     vdW  Elec       q    Type
REMARK                         _______ _______ _______ _____ _____    ______ ____
ROOT
ATOM      1  C   UNL     1      -3.870 -17.264 -57.387  0.00  0.00    +0.052 C 
ATOM      2  C   UNL     1      -4.006 -15.946 -57.174  0.00  0.00    +0.012 C 
ENDROOT
BRANCH   2   3
ATOM      3  C   UNL     1      -5.283 -15.311 -56.820  0.00  0.00    -0.021 A 
ATOM      4  C   UNL     1      -6.314 -15.295 -57.765  0.00  0.00    +0.008 A 
ATOM      5  C   UNL     1      -7.549 -14.724 -57.454  0.00  0.00    +0.004 A 
ATOM      6  C   UNL     1      -7.772 -14.173 -56.191  0.00  0.00    +0.046 A 
ATOM      7  C   UNL     1      -6.761 -14.196 -55.232  0.00  0.00    +0.122 A 
ATOM      8  C   UNL     1      -5.525 -14.770 -55.551  0.00  0.00    +0.053 A 
BRANCH   7   9
ATOM      9  O   UNL     1      -6.846 -13.702 -53.960  0.00  0.00    -0.487 OA
BRANCH   9  10
ATOM     10  C   UNL     1      -6.714 -12.290 -53.797  0.00  0.00    +0.264 C 
BRANCH  10  11
ATOM     11  C   UNL     1      -5.525 -12.003 -52.910  0.00  0.00    -0.010 A 
ATOM     12  C   UNL     1      -5.334 -10.727 -52.364  0.00  0.00    +0.007 A 
ATOM     13  C   UNL     1      -4.252 -10.468 -51.521  0.00  0.00    +0.009 A 
ATOM     14  C   UNL     1      -3.337 -11.480 -51.196  0.00  0.00    -0.018 A 
ATOM     15  C   UNL     1      -2.244 -11.236 -50.349  0.00  0.00    +0.008 A 
ATOM     16  C   UNL     1      -1.343 -12.254 -50.035  0.00  0.00    +0.001 A 
ATOM     17  C   UNL     1      -1.524 -13.529 -50.563  0.00  0.00    +0.001 A 
ATOM     18  C   UNL     1      -2.606 -13.788 -51.407  0.00  0.00    +0.008 A 
ATOM     19  C   UNL     1      -3.522 -12.775 -51.733  0.00  0.00    -0.018 A 
ATOM     20  C   UNL     1      -4.616 -13.020 -52.581  0.00  0.00    +0.015 A 
ENDBRANCH  10  11
ENDBRANCH   9  10
ENDBRANCH   7   9
ENDBRANCH   2   3
BRANCH   1  22
ATOM     21  O   UNL     1      -2.561 -19.166 -57.836  0.00  0.00    -0.287 OA
ATOM     22  C   UNL     1      -2.600 -17.940 -57.765  0.00  0.00    +0.190 C 
BRANCH  22  23
ATOM     23  C   UNL     1      -1.397 -17.158 -58.112  0.00  0.00    +0.064 A 
ATOM     24  C   UNL     1      -0.532 -16.805 -57.065  0.00  0.00    +0.027 A 
ATOM     25  C   UNL     1       0.619 -16.046 -57.320  0.00  0.00    +0.024 A 
ATOM     26  C   UNL     1       0.879 -15.633 -58.636  0.00  0.00    +0.015 A 
ATOM     27  C   UNL     1       0.005 -15.962 -59.677  0.00  0.00    +0.047 A 
ATOM     28  C   UNL     1      -1.136 -16.718 -59.413  0.00  0.00    +0.128 A 
BRANCH  25  29
ATOM     29  C   UNL     1       1.531 -15.687 -56.241  0.00  0.00    +0.204 A 
ATOM     30  N   UNL     1       2.862 -16.039 -56.238  0.00  0.00    -0.108 NA
ATOM     31  N   UNL     1       3.385 -15.557 -55.119  0.00  0.00    -0.049 NA
ATOM     32  N   UNL     1       2.364 -14.948 -54.508  0.00  0.00    -0.176 N 
ATOM     33  N   UNL     1       1.183 -14.995 -55.141  0.00  0.00    -0.133 NA
ATOM     34  H   UNL     1       2.480 -14.478 -53.614  0.00  0.00    +0.214 HD
ENDBRANCH  25  29
BRANCH  28  35
ATOM     35  O   UNL     1      -2.002 -17.010 -60.426  0.00  0.00    -0.506 OA
ATOM     36  H   UNL     1      -1.791 -17.884 -60.796  0.00  0.00    +0.292 HD
ENDBRANCH  28  35
ENDBRANCH  22  23
ENDBRANCH   1  22
TORSDOF 8
ENDMDL
MODEL 3
REMARK VINA RESULT:   -12.749      6.226     10.915
REMARK INTER + INTRA:         -19.042
REMARK INTER:                 -17.662
REMARK INTRA:                  -1.380
REMARK UNBOUND:                -0.703
REMARK  Name = CHEMBL11778
REMARK  8 active torsions:
REMARK  status: ('A' for Active; 'I' for Inactive)
REMARK    1  A    between atoms: C_2  and  C_3
REMARK    2  A    between atoms: C_2  and  C_23
REMARK    3  A    between atoms: C_4  and  C_5
REMARK    4  A    between atoms: C_9  and  O_10
REMARK    5  A    between atoms: O_10  and  C_11
REMARK    6  A    between atoms: C_11  and  C_12
REMARK    7  A    between atoms: C_25  and  C_26
REMARK    8  A    between atoms: C_33  and  O_34
REMARK                            x       y       z     vdW  Elec       q    Type
REMARK                         _______ _______ _______ _____ _____    ______ ____
ROOT
ATOM      1  C   UNL     1      -3.546 -17.038 -57.482  0.00  0.00    +0.052 C 
ATOM      2  C   UNL     1      -3.923 -15.751 -57.462  0.00  0.00    +0.012 C 
ENDROOT
BRANCH   2   3
ATOM      3  C   UNL     1      -5.262 -15.306 -57.049  0.00  0.00    -0.021 A 
ATOM      4  C   UNL     1      -6.290 -15.286 -57.997  0.00  0.00    +0.008 A 
ATOM      5  C   UNL     1      -7.580 -14.895 -57.634  0.00  0.00    +0.004 A 
ATOM      6  C   UNL     1      -7.860 -14.530 -56.316  0.00  0.00    +0.046 A 
ATOM      7  C   UNL     1      -6.850 -14.560 -55.354  0.00  0.00    +0.122 A 
ATOM      8  C   UNL     1      -5.559 -14.953 -55.726  0.00  0.00    +0.053 A 
BRANCH   7   9
ATOM      9  O   UNL     1      -6.987 -14.238 -54.032  0.00  0.00    -0.487 OA
BRANCH   9  10
ATOM     10  C   UNL     1      -7.146 -12.857 -53.710  0.00  0.00    +0.264 C 
BRANCH  10  11
ATOM     11  C   UNL     1      -5.936 -12.386 -52.938  0.00  0.00    -0.010 A 
ATOM     12  C   UNL     1      -5.818 -11.047 -52.543  0.00  0.00    +0.007 A 
ATOM     13  C   UNL     1      -4.714 -10.618 -51.804  0.00  0.00    +0.009 A 
ATOM     14  C   UNL     1      -3.704 -11.518 -51.434  0.00  0.00    -0.018 A 
ATOM     15  C   UNL     1      -2.588 -11.101 -50.691  0.00  0.00    +0.008 A 
ATOM     16  C   UNL     1      -1.591 -12.009 -50.330  0.00  0.00    +0.001 A 
ATOM     17  C   UNL     1      -1.698 -13.344 -50.708  0.00  0.00    +0.001 A 
ATOM     18  C   UNL     1      -2.801 -13.774 -51.447  0.00  0.00    +0.008 A 
ATOM     19  C   UNL     1      -3.813 -12.873 -51.819  0.00  0.00    -0.018 A 
ATOM     20  C   UNL     1      -4.930 -13.290 -52.563  0.00  0.00    +0.015 A 
ENDBRANCH  10  11
ENDBRANCH   9  10
ENDBRANCH   7   9
ENDBRANCH   2   3
BRANCH   1  22
ATOM     21  O   UNL     1      -1.348 -17.765 -57.068  0.00  0.00    -0.287 OA
ATOM     22  C   UNL     1      -2.209 -17.529 -57.911  0.00  0.00    +0.190 C 
BRANCH  22  23
ATOM     23  C   UNL     1      -1.918 -17.789 -59.335  0.00  0.00    +0.064 A 
ATOM     24  C   UNL     1      -2.563 -18.879 -59.938  0.00  0.00    +0.027 A 
ATOM     25  C   UNL     1      -2.317 -19.195 -61.282  0.00  0.00    +0.024 A 
ATOM     26  C   UNL     1      -1.404 -18.411 -62.005  0.00  0.00    +0.015 A 
ATOM     27  C   UNL     1      -0.741 -17.339 -61.399  0.00  0.00    +0.047 A 
ATOM     28  C   UNL     1      -0.993 -17.034 -60.063  0.00  0.00    +0.128 A 
BRANCH  25  29
ATOM     29  C   UNL     1      -2.993 -20.317 -61.921  0.00  0.00    +0.204 A 
ATOM     30  N   UNL     1      -2.798 -21.625 -61.537  0.00  0.00    -0.108 NA
ATOM     31  N   UNL     1      -3.561 -22.374 -62.322  0.00  0.00    -0.049 NA
ATOM     32  N   UNL     1      -4.170 -21.500 -63.130  0.00  0.00    -0.176 N 
ATOM     33  N   UNL     1      -3.860 -20.209 -62.944  0.00  0.00    -0.133 NA
ATOM     34  H   UNL     1      -4.829 -21.802 -63.843  0.00  0.00    +0.214 HD
ENDBRANCH  25  29
BRANCH  28  35
ATOM     35  O   UNL     1      -0.320 -16.007 -59.467  0.00  0.00    -0.506 OA
ATOM     36  H   UNL     1       0.187 -16.344 -58.710  0.00  0.00    +0.292 HD
ENDBRANCH  28  35
ENDBRANCH  22  23
ENDBRANCH   1  22
TORSDOF 8
ENDMDL
