MODEL 1
REMARK VINA RESULT:   -12.733      0.000      0.000
REMARK INTER + INTRA:         -19.764
REMARK INTER:                 -18.315
REMARK INTRA:                  -1.448
REMARK UNBOUND:                -1.448
REMARK  Name = CHEMBL11778
REMARK  8 active torsions:
REMARK  status: ('A' for Active; 'I' for Inactive)
REMARK    1  A    between atoms: C_2  and  C_3
REMARK    2  A    between atoms: C_2  and  C_23
REMARK    3  A    between atoms: C_4  and  C_5
REMARK    4  A    between atoms: C_9  and  O_10
REMARK    5  A    between atoms: O_10  and  C_11
REMARK    6  A    between atoms: C_11  and  C_12
REMARK    7  A    between atoms: C_25  and  C_26
REMARK    8  A    between atoms: C_33  and  O_34
REMARK                            x       y       z     vdW  Elec       q    Type
REMARK                         _______ _______ _______ _____ _____    ______ ____
ROOT
ATOM      1  C   UNL     1     -32.647   6.482   7.862  0.00  0.00    +0.052 C 
ATOM      2  C   UNL     1     -33.694   6.115   8.616  0.00  0.00    +0.012 C 
ENDROOT
BRANCH   2   3
ATOM      3  C   UNL     1     -33.668   4.967   9.534  0.00  0.00    -0.021 A 
ATOM      4  C   UNL     1     -34.499   4.983  10.658  0.00  0.00    +0.008 A 
ATOM      5  C   UNL     1     -34.521   3.898  11.537  0.00  0.00    +0.004 A 
ATOM      6  C   UNL     1     -33.721   2.780  11.295  0.00  0.00    +0.046 A 
ATOM      7  C   UNL     1     -32.899   2.741  10.170  0.00  0.00    +0.122 A 
ATOM      8  C   UNL     1     -32.882   3.832   9.293  0.00  0.00    +0.053 A 
BRANCH   7   9
ATOM      9  O   UNL     1     -32.075   1.712   9.809  0.00  0.00    -0.487 OA
BRANCH   9  10
ATOM     10  C   UNL     1     -31.515   0.924  10.860  0.00  0.00    +0.264 C 
BRANCH  10  11
ATOM     11  C   UNL     1     -30.212   1.547  11.305  0.00  0.00    -0.010 A 
ATOM     12  C   UNL     1     -29.739   1.356  12.609  0.00  0.00    +0.007 A 
ATOM     13  C   UNL     1     -28.522   1.907  13.012  0.00  0.00    +0.009 A 
ATOM     14  C   UNL     1     -27.742   2.656  12.119  0.00  0.00    -0.018 A 
ATOM     15  C   UNL     1     -26.515   3.216  12.509  0.00  0.00    +0.008 A 
ATOM     16  C   UNL     1     -25.751   3.959  11.608  0.00  0.00    +0.001 A 
ATOM     17  C   UNL     1     -26.204   4.151  10.306  0.00  0.00    +0.001 A 
ATOM     18  C   UNL     1     -27.422   3.601   9.903  0.00  0.00    +0.008 A 
ATOM     19  C   UNL     1     -28.203   2.851  10.797  0.00  0.00    -0.018 A 
ATOM     20  C   UNL     1     -29.432   2.291  10.407  0.00  0.00    +0.015 A 
ENDBRANCH  10  11
ENDBRANCH   9  10
ENDBRANCH   7   9
ENDBRANCH   2   3
BRANCH   1  22
ATOM     21  O   UNL     1     -33.311   7.564   5.883  0.00  0.00    -0.287 OA
ATOM     22  C   UNL     1     -32.639   7.623   6.909  0.00  0.00    +0.190 C 
BRANCH  22  23
ATOM     23  C   UNL     1     -31.878   8.854   7.204  0.00  0.00    +0.064 A 
ATOM     24  C   UNL     1     -30.509   8.854   6.900  0.00  0.00    +0.027 A 
ATOM     25  C   UNL     1     -29.721   9.982   7.172  0.00  0.00    +0.024 A 
ATOM     26  C   UNL     1     -30.325  11.101   7.767  0.00  0.00    +0.015 A 
ATOM     27  C   UNL     1     -31.685  11.093   8.094  0.00  0.00    +0.047 A 
ATOM     28  C   UNL     1     -32.458   9.967   7.818  0.00  0.00    +0.128 A 
BRANCH  25  29
ATOM     29  C   UNL     1     -28.301   9.997   6.846  0.00  0.00    +0.204 A 
ATOM     30  N   UNL     1     -27.372   9.226   7.509  0.00  0.00    -0.108 NA
ATOM     31  N   UNL     1     -26.194   9.487   6.962  0.00  0.00    -0.049 NA
ATOM     32  N   UNL     1     -26.458  10.388   6.011  0.00  0.00    -0.176 N 
ATOM     33  N   UNL     1     -27.741  10.757   5.887  0.00  0.00    -0.133 NA
ATOM     34  H   UNL     1     -25.726  10.770   5.418  0.00  0.00    +0.214 HD
ENDBRANCH  25  29
BRANCH  28  35
ATOM     35  O   UNL     1     -33.778   9.952   8.168  0.00  0.00    -0.506 OA
ATOM     36  H   UNL     1     -34.158  10.838   8.047  0.00  0.00    +0.292 HD
ENDBRANCH  28  35
ENDBRANCH  22  23
ENDBRANCH   1  22
TORSDOF 8
ENDMDL
MODEL 2
REMARK VINA RESULT:   -12.594      2.567      4.767
REMARK INTER + INTRA:         -19.564
REMARK INTER:                 -18.250
REMARK INTRA:                  -1.314
REMARK UNBOUND:                -1.448
REMARK  Name = CHEMBL11778
REMARK  8 active torsions:
REMARK  status: ('A' for Active; 'I' for Inactive)
REMARK    1  A    between atoms: C_2  and  C_3
REMARK    2  A    between atoms: C_2  and  C_23
REMARK    3  A    between atoms: C_4  and  C_5
REMARK    4  A    between atoms: C_9  and  O_10
REMARK    5  A    between atoms: O_10  and  C_11
REMARK    6  A    between atoms: C_11  and  C_12
REMARK    7  A    between atoms: C_25  and  C_26
REMARK    8  A    between atoms: C_33  and  O_34
REMARK                            x       y       z     vdW  Elec       q    Type
REMARK                         _______ _______ _______ _____ _____    ______ ____
ROOT
ATOM      1  C   UNL     1     -31.511  10.188   6.727  0.00  0.00    +0.052 C 
ATOM      2  C   UNL     1     -31.561   8.997   7.343  0.00  0.00    +0.012 C 
ENDROOT
BRANCH   2   3
ATOM      3  C   UNL     1     -32.584   7.980   7.058  0.00  0.00    -0.021 A 
ATOM      4  C   UNL     1     -32.785   7.577   5.735  0.00  0.00    +0.008 A 
ATOM      5  C   UNL     1     -33.730   6.595   5.430  0.00  0.00    +0.004 A 
ATOM      6  C   UNL     1     -34.476   5.997   6.447  0.00  0.00    +0.046 A 
ATOM      7  C   UNL     1     -34.276   6.376   7.774  0.00  0.00    +0.122 A 
ATOM      8  C   UNL     1     -33.327   7.361   8.072  0.00  0.00    +0.053 A 
BRANCH   7   9
ATOM      9  O   UNL     1     -34.928   5.869   8.864  0.00  0.00    -0.487 OA
BRANCH   9  10
ATOM     10  C   UNL     1     -35.418   4.531   8.768  0.00  0.00    +0.264 C 
BRANCH  10  11
ATOM     11  C   UNL     1     -34.626   3.646   9.701  0.00  0.00    -0.010 A 
ATOM     12  C   UNL     1     -35.236   3.062  10.819  0.00  0.00    +0.007 A 
ATOM     13  C   UNL     1     -34.512   2.220  11.666  0.00  0.00    +0.009 A 
ATOM     14  C   UNL     1     -33.163   1.934  11.412  0.00  0.00    -0.018 A 
ATOM     15  C   UNL     1     -32.422   1.089  12.254  0.00  0.00    +0.008 A 
ATOM     16  C   UNL     1     -31.080   0.815  11.987  0.00  0.00    +0.001 A 
ATOM     17  C   UNL     1     -30.462   1.381  10.876  0.00  0.00    +0.001 A 
ATOM     18  C   UNL     1     -31.185   2.223  10.030  0.00  0.00    +0.008 A 
ATOM     19  C   UNL     1     -32.537   2.510  10.283  0.00  0.00    -0.018 A 
ATOM     20  C   UNL     1     -33.278   3.357   9.441  0.00  0.00    +0.015 A 
ENDBRANCH  10  11
ENDBRANCH   9  10
ENDBRANCH   7   9
ENDBRANCH   2   3
BRANCH   1  22
ATOM     21  O   UNL     1     -30.805  12.204   7.710  0.00  0.00    -0.287 OA
ATOM     22  C   UNL     1     -30.504  11.248   7.001  0.00  0.00    +0.190 C 
BRANCH  22  23
ATOM     23  C   UNL     1     -29.128  11.142   6.476  0.00  0.00    +0.064 A 
ATOM     24  C   UNL     1     -28.366  10.036   6.882  0.00  0.00    +0.027 A 
ATOM     25  C   UNL     1     -27.044   9.883   6.438  0.00  0.00    +0.024 A 
ATOM     26  C   UNL     1     -26.497  10.863   5.594  0.00  0.00    +0.015 A 
ATOM     27  C   UNL     1     -27.247  11.978   5.209  0.00  0.00    +0.047 A 
ATOM     28  C   UNL     1     -28.559  12.120   5.656  0.00  0.00    +0.128 A 
BRANCH  25  29
ATOM     29  C   UNL     1     -26.250   8.730   6.843  0.00  0.00    +0.204 A 
ATOM     30  N   UNL     1     -26.772   7.674   7.554  0.00  0.00    -0.108 NA
ATOM     31  N   UNL     1     -25.782   6.814   7.750  0.00  0.00    -0.049 NA
ATOM     32  N   UNL     1     -24.725   7.381   7.158  0.00  0.00    -0.176 N 
ATOM     33  N   UNL     1     -24.939   8.572   6.583  0.00  0.00    -0.133 NA
ATOM     34  H   UNL     1     -23.814   6.931   7.149  0.00  0.00    +0.214 HD
ENDBRANCH  25  29
BRANCH  28  35
ATOM     35  O   UNL     1     -29.277  13.226   5.303  0.00  0.00    -0.506 OA
ATOM     36  H   UNL     1     -28.670  13.945   5.057  0.00  0.00    +0.292 HD
ENDBRANCH  28  35
ENDBRANCH  22  23
ENDBRANCH   1  22
TORSDOF 8
ENDMDL
MODEL 3
REMARK VINA RESULT:   -12.586      2.577      8.070
REMARK INTER + INTRA:         -19.552
REMARK INTER:                 -18.197
REMARK INTRA:                  -1.356
REMARK UNBOUND:                -1.448
REMARK  Name = CHEMBL11778
REMARK  8 active torsions:
REMARK  status: ('A' for Active; 'I' for Inactive)
REMARK    1  A    between atoms: C_2  and  C_3
REMARK    2  A    between atoms: C_2  and  C_23
REMARK    3  A    between atoms: C_4  and  C_5
REMARK    4  A    between atoms: C_9  and  O_10
REMARK    5  A    between atoms: O_10  and  C_11
REMARK    6  A    between atoms: C_11  and  C_12
REMARK    7  A    between atoms: C_25  and  C_26
REMARK    8  A    between atoms: C_33  and  O_34
REMARK                            x       y       z     vdW  Elec       q    Type
REMARK                         _______ _______ _______ _____ _____    ______ ____
ROOT
ATOM      1  C   UNL     1     -31.958   2.551   9.656  0.00  0.00    +0.052 C 
ATOM      2  C   UNL     1     -33.034   3.261  10.026  0.00  0.00    +0.012 C 
ENDROOT
BRANCH   2   3
ATOM      3  C   UNL     1     -33.603   4.350   9.219  0.00  0.00    -0.021 A 
ATOM      4  C   UNL     1     -34.863   4.174   8.640  0.00  0.00    +0.008 A 
ATOM      5  C   UNL     1     -35.446   5.197   7.890  0.00  0.00    +0.004 A 
ATOM      6  C   UNL     1     -34.780   6.412   7.719  0.00  0.00    +0.046 A 
ATOM      7  C   UNL     1     -33.530   6.610   8.304  0.00  0.00    +0.122 A 
ATOM      8  C   UNL     1     -32.952   5.580   9.055  0.00  0.00    +0.053 A 
BRANCH   7   9
ATOM      9  O   UNL     1     -32.774   7.747   8.226  0.00  0.00    -0.487 OA
BRANCH   9  10
ATOM     10  C   UNL     1     -31.390   7.591   7.914  0.00  0.00    +0.264 C 
BRANCH  10  11
ATOM     11  C   UNL     1     -30.860   8.888   7.350  0.00  0.00    -0.010 A 
ATOM     12  C   UNL     1     -31.680  10.022   7.278  0.00  0.00    +0.007 A 
ATOM     13  C   UNL     1     -31.183  11.229   6.783  0.00  0.00    +0.009 A 
ATOM     14  C   UNL     1     -29.851  11.335   6.355  0.00  0.00    -0.018 A 
ATOM     15  C   UNL     1     -29.336  12.542   5.856  0.00  0.00    +0.008 A 
ATOM     16  C   UNL     1     -28.009  12.632   5.435  0.00  0.00    +0.001 A 
ATOM     17  C   UNL     1     -27.180  11.516   5.508  0.00  0.00    +0.001 A 
ATOM     18  C   UNL     1     -27.677  10.309   6.002  0.00  0.00    +0.008 A 
ATOM     19  C   UNL     1     -29.010  10.201   6.429  0.00  0.00    -0.018 A 
ATOM     20  C   UNL     1     -29.525   8.993   6.929  0.00  0.00    +0.015 A 
ENDBRANCH  10  11
ENDBRANCH   9  10
ENDBRANCH   7   9
ENDBRANCH   2   3
BRANCH   1  22
ATOM     21  O   UNL     1     -31.777   0.312  10.352  0.00  0.00    -0.287 OA
ATOM     22  C   UNL     1     -31.342   1.456  10.453  0.00  0.00    +0.190 C 
BRANCH  22  23
ATOM     23  C   UNL     1     -30.178   1.714  11.324  0.00  0.00    +0.064 A 
ATOM     24  C   UNL     1     -29.093   2.404  10.765  0.00  0.00    +0.027 A 
ATOM     25  C   UNL     1     -27.947   2.666  11.530  0.00  0.00    +0.024 A 
ATOM     26  C   UNL     1     -27.902   2.210  12.857  0.00  0.00    +0.015 A 
ATOM     27  C   UNL     1     -28.973   1.499  13.409  0.00  0.00    +0.047 A 
ATOM     28  C   UNL     1     -30.106   1.246  12.639  0.00  0.00    +0.128 A 
BRANCH  25  29
ATOM     29  C   UNL     1     -26.820   3.395  10.962  0.00  0.00    +0.204 A 
ATOM     30  N   UNL     1     -26.592   3.482   9.607  0.00  0.00    -0.108 NA
ATOM     31  N   UNL     1     -25.495   4.210   9.447  0.00  0.00    -0.049 NA
ATOM     32  N   UNL     1     -25.117   4.523  10.691  0.00  0.00    -0.176 N 
ATOM     33  N   UNL     1     -25.887   4.046  11.680  0.00  0.00    -0.133 NA
ATOM     34  H   UNL     1     -24.293   5.090  10.872  0.00  0.00    +0.214 HD
ENDBRANCH  25  29
BRANCH  28  35
ATOM     35  O   UNL     1     -31.136   0.525  13.172  0.00  0.00    -0.506 OA
ATOM     36  H   UNL     1     -31.424  -0.152  12.536  0.00  0.00    +0.292 HD
ENDBRANCH  28  35
ENDBRANCH  22  23
ENDBRANCH   1  22
TORSDOF 8
ENDMDL
