MODEL 1
REMARK VINA RESULT:   -12.084      0.000      0.000
REMARK INTER + INTRA:         -16.818
REMARK INTER:                 -16.322
REMARK INTRA:                  -0.496
REMARK UNBOUND:                -0.496
REMARK  Name = CHEMBL6354
REMARK  7 active torsions:
REMARK  status: ('A' for Active; 'I' for Inactive)
REMARK    1  A    between atoms: N_1  and  C_2
REMARK    2  A    between atoms: N_5  and  C_6
REMARK    3  A    between atoms: C_6  and  C_7
REMARK    4  A    between atoms: C_11  and  C_12
REMARK    5  A    between atoms: C_16  and  C_17
REMARK    6  A    between atoms: C_17  and  N_18
REMARK    7  A    between atoms: C_21  and  N_22
REMARK                            x       y       z     vdW  Elec       q    Type
REMARK                         _______ _______ _______ _____ _____    ______ ____
ROOT
ATOM      1  C   UNL     1      -5.633 -14.980 -54.870  0.00  0.00    -0.027 A 
ATOM      2  C   UNL     1      -6.952 -14.620 -55.185  0.00  0.00    +0.005 A 
ATOM      3  C   UNL     1      -7.399 -14.649 -56.503  0.00  0.00    +0.001 A 
ATOM      4  C   UNL     1      -6.533 -15.023 -57.530  0.00  0.00    +0.008 A 
ATOM      5  C   UNL     1      -5.198 -15.364 -57.264  0.00  0.00    -0.018 A 
ATOM      6  C   UNL     1      -4.763 -15.328 -55.922  0.00  0.00    +0.014 A 
ENDROOT
BRANCH   5   7
ATOM      7  C   UNL     1      -4.287 -15.757 -58.356  0.00  0.00    -0.018 A 
ATOM      8  C   UNL     1      -4.502 -15.317 -59.670  0.00  0.00    +0.008 A 
ATOM      9  C   UNL     1      -3.642 -15.690 -60.704  0.00  0.00    +0.001 A 
ATOM     10  C   UNL     1      -2.539 -16.503 -60.446  0.00  0.00    +0.005 A 
ATOM     11  C   UNL     1      -2.274 -16.944 -59.144  0.00  0.00    -0.027 A 
ATOM     12  C   UNL     1      -3.165 -16.577 -58.116  0.00  0.00    +0.014 A 
BRANCH  11  13
ATOM     13  C   UNL     1      -1.096 -17.840 -58.827  0.00  0.00    +0.157 C 
BRANCH  13  14
ATOM     14  N   UNL     1      -0.403 -18.325 -60.055  0.00  0.00    -0.342 N 
ATOM     15  C   UNL     1      -0.886 -19.466 -60.603  0.00  0.00    +0.088 A 
ATOM     16  C   UNL     1      -0.369 -19.993 -61.769  0.00  0.00    +0.041 A 
ATOM     17  C   UNL     1       0.700 -19.371 -62.397  0.00  0.00    +0.035 A 
ATOM     18  C   UNL     1       1.177 -18.151 -61.869  0.00  0.00    +0.019 A 
ATOM     19  C   UNL     1       2.198 -17.406 -62.504  0.00  0.00    +0.012 A 
ATOM     20  C   UNL     1       2.695 -16.224 -61.959  0.00  0.00    +0.001 A 
ATOM     21  C   UNL     1       2.188 -15.753 -60.761  0.00  0.00    +0.002 A 
ATOM     22  C   UNL     1       1.167 -16.452 -60.114  0.00  0.00    +0.026 A 
ATOM     23  C   UNL     1       0.626 -17.641 -60.653  0.00  0.00    +0.051 A 
BRANCH  17  24
ATOM     24  N   UNL     1       1.107 -19.874 -63.639  0.00  0.00    -0.357 N 
ATOM     25  H   UNL     1       1.097 -19.227 -64.421  0.00  0.00    +0.142 HD
ATOM     26  H   UNL     1       1.956 -20.433 -63.647  0.00  0.00    +0.142 HD
ENDBRANCH  17  24
ENDBRANCH  13  14
ENDBRANCH  11  13
ENDBRANCH   5   7
BRANCH   1  27
ATOM     27  C   UNL     1      -5.189 -14.925 -53.425  0.00  0.00    +0.157 C 
BRANCH  27  31
ATOM     28  C   UNL     1      -5.375 -10.963 -51.819  0.00  0.00    +0.035 A 
ATOM     29  C   UNL     1      -6.364 -11.479 -52.644  0.00  0.00    +0.041 A 
ATOM     30  C   UNL     1      -6.259 -12.768 -53.129  0.00  0.00    +0.088 A 
ATOM     31  N   UNL     1      -5.186 -13.546 -52.858  0.00  0.00    -0.342 N 
ATOM     32  C   UNL     1      -4.153 -13.077 -52.085  0.00  0.00    +0.051 A 
ATOM     33  C   UNL     1      -3.015 -13.857 -51.788  0.00  0.00    +0.026 A 
ATOM     34  C   UNL     1      -1.956 -13.350 -51.034  0.00  0.00    +0.002 A 
ATOM     35  C   UNL     1      -2.010 -12.051 -50.559  0.00  0.00    +0.001 A 
ATOM     36  C   UNL     1      -3.126 -11.259 -50.825  0.00  0.00    +0.012 A 
ATOM     37  C   UNL     1      -4.224 -11.746 -51.573  0.00  0.00    +0.019 A 
BRANCH  28  38
ATOM     38  N   UNL     1      -5.471  -9.615 -51.451  0.00  0.00    -0.357 N 
ATOM     39  H   UNL     1      -4.982  -8.952 -52.048  0.00  0.00    +0.142 HD
ATOM     40  H   UNL     1      -5.285  -9.405 -50.472  0.00  0.00    +0.142 HD
ENDBRANCH  28  38
ENDBRANCH  27  31
ENDBRANCH   1  27
TORSDOF 7
ENDMDL
MODEL 2
REMARK VINA RESULT:   -11.663      2.174      2.931
REMARK INTER + INTRA:         -16.250
REMARK INTER:                 -15.554
REMARK INTRA:                  -0.696
REMARK UNBOUND:                -0.496
REMARK  Name = CHEMBL6354
REMARK  7 active torsions:
REMARK  status: ('A' for Active; 'I' for Inactive)
REMARK    1  A    between atoms: N_1  and  C_2
REMARK    2  A    between atoms: N_5  and  C_6
REMARK    3  A    between atoms: C_6  and  C_7
REMARK    4  A    between atoms: C_11  and  C_12
REMARK    5  A    between atoms: C_16  and  C_17
REMARK    6  A    between atoms: C_17  and  N_18
REMARK    7  A    between atoms: C_21  and  N_22
REMARK                            x       y       z     vdW  Elec       q    Type
REMARK                         _______ _______ _______ _____ _____    ______ ____
ROOT
ATOM      1  C   UNL     1      -5.421 -15.029 -55.233  0.00  0.00    -0.027 A 
ATOM      2  C   UNL     1      -6.420 -14.275 -55.866  0.00  0.00    +0.005 A 
ATOM      3  C   UNL     1      -6.533 -14.270 -57.253  0.00  0.00    +0.001 A 
ATOM      4  C   UNL     1      -5.641 -15.007 -58.032  0.00  0.00    +0.008 A 
ATOM      5  C   UNL     1      -4.609 -15.754 -57.442  0.00  0.00    -0.018 A 
ATOM      6  C   UNL     1      -4.511 -15.745 -56.035  0.00  0.00    +0.014 A 
ENDROOT
BRANCH   5   7
ATOM      7  C   UNL     1      -3.668 -16.529 -58.274  0.00  0.00    -0.018 A 
ATOM      8  C   UNL     1      -2.977 -17.630 -57.747  0.00  0.00    +0.008 A 
ATOM      9  C   UNL     1      -2.085 -18.362 -58.532  0.00  0.00    +0.001 A 
ATOM     10  C   UNL     1      -1.871 -18.016 -59.866  0.00  0.00    +0.005 A 
ATOM     11  C   UNL     1      -2.559 -16.940 -60.438  0.00  0.00    -0.027 A 
ATOM     12  C   UNL     1      -3.439 -16.197 -59.625  0.00  0.00    +0.014 A 
BRANCH  11  13
ATOM     13  C   UNL     1      -2.343 -16.524 -61.877  0.00  0.00    +0.157 C 
BRANCH  13  14
ATOM     14  N   UNL     1      -2.771 -17.577 -62.843  0.00  0.00    -0.342 N 
ATOM     15  C   UNL     1      -4.097 -17.854 -62.876  0.00  0.00    +0.088 A 
ATOM     16  C   UNL     1      -4.631 -18.769 -63.760  0.00  0.00    +0.041 A 
ATOM     17  C   UNL     1      -3.800 -19.463 -64.626  0.00  0.00    +0.035 A 
ATOM     18  C   UNL     1      -2.424 -19.144 -64.643  0.00  0.00    +0.019 A 
ATOM     19  C   UNL     1      -1.528 -19.736 -65.563  0.00  0.00    +0.012 A 
ATOM     20  C   UNL     1      -0.164 -19.451 -65.550  0.00  0.00    +0.001 A 
ATOM     21  C   UNL     1       0.344 -18.566 -64.614  0.00  0.00    +0.002 A 
ATOM     22  C   UNL     1      -0.513 -17.949 -63.702  0.00  0.00    +0.026 A 
ATOM     23  C   UNL     1      -1.904 -18.200 -63.705  0.00  0.00    +0.051 A 
BRANCH  17  24
ATOM     24  N   UNL     1      -4.403 -20.287 -65.585  0.00  0.00    -0.357 N 
ATOM     25  H   UNL     1      -5.150 -19.877 -66.136  0.00  0.00    +0.142 HD
ATOM     26  H   UNL     1      -3.778 -20.829 -66.176  0.00  0.00    +0.142 HD
ENDBRANCH  17  24
ENDBRANCH  13  14
ENDBRANCH  11  13
ENDBRANCH   5   7
BRANCH   1  27
ATOM     27  C   UNL     1      -5.331 -14.996 -53.723  0.00  0.00    +0.157 C 
BRANCH  27  31
ATOM     28  C   UNL     1      -5.478 -11.025 -52.138  0.00  0.00    +0.035 A 
ATOM     29  C   UNL     1      -6.442 -11.515 -53.008  0.00  0.00    +0.041 A 
ATOM     30  C   UNL     1      -6.351 -12.808 -53.485  0.00  0.00    +0.088 A 
ATOM     31  N   UNL     1      -5.315 -13.616 -53.160  0.00  0.00    -0.342 N 
ATOM     32  C   UNL     1      -4.308 -13.174 -52.339  0.00  0.00    +0.051 A 
ATOM     33  C   UNL     1      -3.208 -13.986 -51.986  0.00  0.00    +0.026 A 
ATOM     34  C   UNL     1      -2.172 -13.506 -51.183  0.00  0.00    +0.002 A 
ATOM     35  C   UNL     1      -2.211 -12.205 -50.715  0.00  0.00    +0.001 A 
ATOM     36  C   UNL     1      -3.290 -11.382 -51.036  0.00  0.00    +0.012 A 
ATOM     37  C   UNL     1      -4.364 -11.840 -51.835  0.00  0.00    +0.019 A 
BRANCH  28  38
ATOM     38  N   UNL     1      -5.552  -9.673 -51.778  0.00  0.00    -0.357 N 
ATOM     39  H   UNL     1      -5.426  -9.001 -52.532  0.00  0.00    +0.142 HD
ATOM     40  H   UNL     1      -5.001  -9.395 -50.968  0.00  0.00    +0.142 HD
ENDBRANCH  28  38
ENDBRANCH  27  31
ENDBRANCH   1  27
TORSDOF 7
ENDMDL
MODEL 3
REMARK VINA RESULT:   -11.659      2.073      3.225
REMARK INTER + INTRA:         -16.244
REMARK INTER:                 -15.278
REMARK INTRA:                  -0.966
REMARK UNBOUND:                -0.496
REMARK  Name = CHEMBL6354
REMARK  7 active torsions:
REMARK  status: ('A' for Active; 'I' for Inactive)
REMARK    1  A    between atoms: N_1  and  C_2
REMARK    2  A    between atoms: N_5  and  C_6
REMARK    3  A    between atoms: C_6  and  C_7
REMARK    4  A    between atoms: C_11  and  C_12
REMARK    5  A    between atoms: C_16  and  C_17
REMARK    6  A    between atoms: C_17  and  N_18
REMARK    7  A    between atoms: C_21  and  N_22
REMARK                            x       y       z     vdW  Elec       q    Type
REMARK                         _______ _______ _______ _____ _____    ______ ____
ROOT
ATOM      1  C   UNL     1      -5.190 -14.853 -57.173  0.00  0.00    -0.027 A 
ATOM      2  C   UNL     1      -4.180 -15.163 -56.249  0.00  0.00    +0.005 A 
ATOM      3  C   UNL     1      -3.021 -15.817 -56.659  0.00  0.00    +0.001 A 
ATOM      4  C   UNL     1      -2.858 -16.185 -57.994  0.00  0.00    +0.008 A 
ATOM      5  C   UNL     1      -3.855 -15.919 -58.946  0.00  0.00    -0.018 A 
ATOM      6  C   UNL     1      -5.022 -15.257 -58.512  0.00  0.00    +0.014 A 
ENDROOT
BRANCH   5   7
ATOM      7  C   UNL     1      -3.676 -16.315 -60.357  0.00  0.00    -0.018 A 
ATOM      8  C   UNL     1      -4.420 -15.705 -61.378  0.00  0.00    +0.008 A 
ATOM      9  C   UNL     1      -4.253 -16.080 -62.712  0.00  0.00    +0.001 A 
ATOM     10  C   UNL     1      -3.329 -17.066 -63.057  0.00  0.00    +0.005 A 
ATOM     11  C   UNL     1      -2.549 -17.683 -62.072  0.00  0.00    -0.027 A 
ATOM     12  C   UNL     1      -2.747 -17.308 -60.727  0.00  0.00    +0.014 A 
BRANCH  11  13
ATOM     13  C   UNL     1      -1.547 -18.767 -62.405  0.00  0.00    +0.157 C 
BRANCH  13  14
ATOM     14  N   UNL     1      -0.272 -18.216 -62.948  0.00  0.00    -0.342 N 
ATOM     15  C   UNL     1      -0.048 -18.419 -64.269  0.00  0.00    +0.088 A 
ATOM     16  C   UNL     1       1.068 -17.917 -64.906  0.00  0.00    +0.041 A 
ATOM     17  C   UNL     1       2.019 -17.209 -64.186  0.00  0.00    +0.035 A 
ATOM     18  C   UNL     1       1.771 -16.941 -62.821  0.00  0.00    +0.019 A 
ATOM     19  C   UNL     1       2.642 -16.145 -62.042  0.00  0.00    +0.012 A 
ATOM     20  C   UNL     1       2.417 -15.916 -60.687  0.00  0.00    +0.001 A 
ATOM     21  C   UNL     1       1.314 -16.479 -60.069  0.00  0.00    +0.002 A 
ATOM     22  C   UNL     1       0.422 -17.256 -60.810  0.00  0.00    +0.026 A 
ATOM     23  C   UNL     1       0.611 -17.487 -62.191  0.00  0.00    +0.051 A 
BRANCH  17  24
ATOM     24  N   UNL     1       3.067 -16.617 -64.900  0.00  0.00    -0.357 N 
ATOM     25  H   UNL     1       2.960 -16.559 -65.908  0.00  0.00    +0.142 HD
ATOM     26  H   UNL     1       3.434 -15.744 -64.530  0.00  0.00    +0.142 HD
ENDBRANCH  17  24
ENDBRANCH  13  14
ENDBRANCH  11  13
ENDBRANCH   5   7
BRANCH   1  27
ATOM     27  C   UNL     1      -6.435 -14.150 -56.679  0.00  0.00    +0.157 C 
BRANCH  27  31
ATOM     28  C   UNL     1      -6.737 -14.226 -52.412  0.00  0.00    +0.035 A 
ATOM     29  C   UNL     1      -7.111 -15.302 -53.204  0.00  0.00    +0.041 A 
ATOM     30  C   UNL     1      -6.985 -15.228 -54.577  0.00  0.00    +0.088 A 
ATOM     31  N   UNL     1      -6.543 -14.107 -55.193  0.00  0.00    -0.342 N 
ATOM     32  C   UNL     1      -6.201 -12.994 -54.467  0.00  0.00    +0.051 A 
ATOM     33  C   UNL     1      -5.743 -11.805 -55.076  0.00  0.00    +0.026 A 
ATOM     34  C   UNL     1      -5.438 -10.669 -54.325  0.00  0.00    +0.002 A 
ATOM     35  C   UNL     1      -5.584 -10.693 -52.950  0.00  0.00    +0.001 A 
ATOM     36  C   UNL     1      -6.022 -11.857 -52.318  0.00  0.00    +0.012 A 
ATOM     37  C   UNL     1      -6.326 -13.031 -53.046  0.00  0.00    +0.019 A 
BRANCH  28  38
ATOM     38  N   UNL     1      -6.994 -14.307 -51.037  0.00  0.00    -0.357 N 
ATOM     39  H   UNL     1      -7.061 -15.246 -50.649  0.00  0.00    +0.142 HD
ATOM     40  H   UNL     1      -7.759 -13.732 -50.691  0.00  0.00    +0.142 HD
ENDBRANCH  28  38
ENDBRANCH  27  31
ENDBRANCH   1  27
TORSDOF 7
ENDMDL
