MODEL 1
REMARK VINA RESULT:   -11.046      0.000      0.000
REMARK INTER + INTRA:         -15.169
REMARK INTER:                 -14.920
REMARK INTRA:                  -0.249
REMARK UNBOUND:                -0.249
REMARK  Name = CHEMBL6354
REMARK  7 active torsions:
REMARK  status: ('A' for Active; 'I' for Inactive)
REMARK    1  A    between atoms: N_1  and  C_2
REMARK    2  A    between atoms: N_5  and  C_6
REMARK    3  A    between atoms: C_6  and  C_7
REMARK    4  A    between atoms: C_11  and  C_12
REMARK    5  A    between atoms: C_16  and  C_17
REMARK    6  A    between atoms: C_17  and  N_18
REMARK    7  A    between atoms: C_21  and  N_22
REMARK                            x       y       z     vdW  Elec       q    Type
REMARK                         _______ _______ _______ _____ _____    ______ ____
ROOT
ATOM      1  C   UNL     1      21.586   7.799 -12.144  0.00  0.00    -0.027 A 
ATOM      2  C   UNL     1      22.850   7.403 -12.605  0.00  0.00    +0.005 A 
ATOM      3  C   UNL     1      23.446   6.238 -12.126  0.00  0.00    +0.001 A 
ATOM      4  C   UNL     1      22.795   5.459 -11.170  0.00  0.00    +0.008 A 
ATOM      5  C   UNL     1      21.541   5.833 -10.662  0.00  0.00    -0.018 A 
ATOM      6  C   UNL     1      20.954   7.016 -11.158  0.00  0.00    +0.014 A 
ENDROOT
BRANCH   5   7
ATOM      7  C   UNL     1      20.860   5.005  -9.648  0.00  0.00    -0.018 A 
ATOM      8  C   UNL     1      20.904   5.345  -8.288  0.00  0.00    +0.008 A 
ATOM      9  C   UNL     1      20.262   4.561  -7.329  0.00  0.00    +0.001 A 
ATOM     10  C   UNL     1      19.550   3.423  -7.708  0.00  0.00    +0.005 A 
ATOM     11  C   UNL     1      19.460   3.061  -9.058  0.00  0.00    -0.027 A 
ATOM     12  C   UNL     1      20.134   3.852 -10.011  0.00  0.00    +0.014 A 
BRANCH  11  13
ATOM     13  C   UNL     1      18.711   1.826  -9.508  0.00  0.00    +0.157 C 
BRANCH  13  14
ATOM     14  N   UNL     1      17.786   2.104 -10.644  0.00  0.00    -0.342 N 
ATOM     15  C   UNL     1      16.463   2.085 -10.356  0.00  0.00    +0.088 A 
ATOM     16  C   UNL     1      15.504   2.377 -11.304  0.00  0.00    +0.041 A 
ATOM     17  C   UNL     1      15.881   2.668 -12.606  0.00  0.00    +0.035 A 
ATOM     18  C   UNL     1      17.259   2.747 -12.908  0.00  0.00    +0.019 A 
ATOM     19  C   UNL     1      17.727   3.132 -14.186  0.00  0.00    +0.012 A 
ATOM     20  C   UNL     1      19.085   3.170 -14.493  0.00  0.00    +0.001 A 
ATOM     21  C   UNL     1      20.017   2.820 -13.531  0.00  0.00    +0.002 A 
ATOM     22  C   UNL     1      19.594   2.452 -12.253  0.00  0.00    +0.026 A 
ATOM     23  C   UNL     1      18.224   2.426 -11.905  0.00  0.00    +0.051 A 
BRANCH  17  24
ATOM     24  N   UNL     1      14.882   3.076 -13.497  0.00  0.00    -0.357 N 
ATOM     25  H   UNL     1      13.998   3.370 -13.092  0.00  0.00    +0.142 HD
ATOM     26  H   UNL     1      15.165   3.713 -14.238  0.00  0.00    +0.142 HD
ENDBRANCH  17  24
ENDBRANCH  13  14
ENDBRANCH  11  13
ENDBRANCH   5   7
BRANCH   1  27
ATOM     27  C   UNL     1      20.982   9.076 -12.686  0.00  0.00    +0.157 C 
BRANCH  27  31
ATOM     28  C   UNL     1      23.686  12.368 -12.284  0.00  0.00    +0.035 A 
ATOM     29  C   UNL     1      23.216  11.653 -11.191  0.00  0.00    +0.041 A 
ATOM     30  C   UNL     1      22.350  10.593 -11.378  0.00  0.00    +0.088 A 
ATOM     31  N   UNL     1      21.902  10.246 -12.607  0.00  0.00    -0.342 N 
ATOM     32  C   UNL     1      22.296  10.944 -13.722  0.00  0.00    +0.051 A 
ATOM     33  C   UNL     1      21.842  10.615 -15.018  0.00  0.00    +0.026 A 
ATOM     34  C   UNL     1      22.221  11.360 -16.136  0.00  0.00    +0.002 A 
ATOM     35  C   UNL     1      23.060  12.450 -15.985  0.00  0.00    +0.001 A 
ATOM     36  C   UNL     1      23.534  12.792 -14.719  0.00  0.00    +0.012 A 
ATOM     37  C   UNL     1      23.183  12.051 -13.566  0.00  0.00    +0.019 A 
BRANCH  28  38
ATOM     38  N   UNL     1      24.466  13.504 -12.033  0.00  0.00    -0.357 N 
ATOM     39  H   UNL     1      24.223  14.340 -12.560  0.00  0.00    +0.142 HD
ATOM     40  H   UNL     1      25.474  13.365 -12.044  0.00  0.00    +0.142 HD
ENDBRANCH  28  38
ENDBRANCH  27  31
ENDBRANCH   1  27
TORSDOF 7
ENDMDL
MODEL 2
REMARK VINA RESULT:   -10.808      3.160     10.515
REMARK INTER + INTRA:         -14.848
REMARK INTER:                 -14.004
REMARK INTRA:                  -0.843
REMARK UNBOUND:                -0.249
REMARK  Name = CHEMBL6354
REMARK  7 active torsions:
REMARK  status: ('A' for Active; 'I' for Inactive)
REMARK    1  A    between atoms: N_1  and  C_2
REMARK    2  A    between atoms: N_5  and  C_6
REMARK    3  A    between atoms: C_6  and  C_7
REMARK    4  A    between atoms: C_11  and  C_12
REMARK    5  A    between atoms: C_16  and  C_17
REMARK    6  A    between atoms: C_17  and  N_18
REMARK    7  A    between atoms: C_21  and  N_22
REMARK                            x       y       z     vdW  Elec       q    Type
REMARK                         _______ _______ _______ _____ _____    ______ ____
ROOT
ATOM      1  C   UNL     1      20.690   6.733 -11.951  0.00  0.00    -0.027 A 
ATOM      2  C   UNL     1      21.800   5.930 -11.649  0.00  0.00    +0.005 A 
ATOM      3  C   UNL     1      23.070   6.278 -12.100  0.00  0.00    +0.001 A 
ATOM      4  C   UNL     1      23.251   7.427 -12.870  0.00  0.00    +0.008 A 
ATOM      5  C   UNL     1      22.164   8.244 -13.218  0.00  0.00    -0.018 A 
ATOM      6  C   UNL     1      20.885   7.874 -12.753  0.00  0.00    +0.014 A 
ENDROOT
BRANCH   5   7
ATOM      7  C   UNL     1      22.363   9.457 -14.036  0.00  0.00    -0.018 A 
ATOM      8  C   UNL     1      23.362  10.388 -13.716  0.00  0.00    +0.008 A 
ATOM      9  C   UNL     1      23.549  11.536 -14.488  0.00  0.00    +0.001 A 
ATOM     10  C   UNL     1      22.749  11.773 -15.605  0.00  0.00    +0.005 A 
ATOM     11  C   UNL     1      21.756  10.857 -15.974  0.00  0.00    -0.027 A 
ATOM     12  C   UNL     1      21.566   9.714 -15.170  0.00  0.00    +0.014 A 
BRANCH  11  13
ATOM     13  C   UNL     1      20.858  11.087 -17.169  0.00  0.00    +0.157 C 
BRANCH  13  14
ATOM     14  N   UNL     1      21.601  11.629 -18.343  0.00  0.00    -0.342 N 
ATOM     15  C   UNL     1      22.753  10.994 -18.667  0.00  0.00    +0.088 A 
ATOM     16  C   UNL     1      23.509  11.362 -19.760  0.00  0.00    +0.041 A 
ATOM     17  C   UNL     1      23.115  12.435 -20.547  0.00  0.00    +0.035 A 
ATOM     18  C   UNL     1      21.887  13.071 -20.255  0.00  0.00    +0.019 A 
ATOM     19  C   UNL     1      21.368  14.107 -21.065  0.00  0.00    +0.012 A 
ATOM     20  C   UNL     1      20.177  14.760 -20.753  0.00  0.00    +0.001 A 
ATOM     21  C   UNL     1      19.472  14.398 -19.618  0.00  0.00    +0.002 A 
ATOM     22  C   UNL     1      19.945  13.367 -18.804  0.00  0.00    +0.026 A 
ATOM     23  C   UNL     1      21.137  12.671 -19.107  0.00  0.00    +0.051 A 
BRANCH  17  24
ATOM     24  N   UNL     1      23.847  12.690 -21.712  0.00  0.00    -0.357 N 
ATOM     25  H   UNL     1      24.704  12.162 -21.840  0.00  0.00    +0.142 HD
ATOM     26  H   UNL     1      23.319  12.732 -22.581  0.00  0.00    +0.142 HD
ENDBRANCH  17  24
ENDBRANCH  13  14
ENDBRANCH  11  13
ENDBRANCH   5   7
BRANCH   1  27
ATOM     27  C   UNL     1      19.328   6.309 -11.447  0.00  0.00    +0.157 C 
BRANCH  27  31
ATOM     28  C   UNL     1      19.350   2.309  -9.930  0.00  0.00    +0.035 A 
ATOM     29  C   UNL     1      19.255   2.590 -11.285  0.00  0.00    +0.041 A 
ATOM     30  C   UNL     1      19.260   3.900 -11.722  0.00  0.00    +0.088 A 
ATOM     31  N   UNL     1      19.313   4.940 -10.858  0.00  0.00    -0.342 N 
ATOM     32  C   UNL     1      19.363   4.727  -9.503  0.00  0.00    +0.051 A 
ATOM     33  C   UNL     1      19.412   5.787  -8.572  0.00  0.00    +0.026 A 
ATOM     34  C   UNL     1      19.422   5.553  -7.196  0.00  0.00    +0.002 A 
ATOM     35  C   UNL     1      19.382   4.255  -6.719  0.00  0.00    +0.001 A 
ATOM     36  C   UNL     1      19.347   3.186  -7.614  0.00  0.00    +0.012 A 
ATOM     37  C   UNL     1      19.351   3.386  -9.014  0.00  0.00    +0.019 A 
BRANCH  28  38
ATOM     38  N   UNL     1      19.222   0.972  -9.531  0.00  0.00    -0.357 N 
ATOM     39  H   UNL     1      19.966   0.607  -8.941  0.00  0.00    +0.142 HD
ATOM     40  H   UNL     1      19.003   0.305 -10.268  0.00  0.00    +0.142 HD
ENDBRANCH  28  38
ENDBRANCH  27  31
ENDBRANCH   1  27
TORSDOF 7
ENDMDL
MODEL 3
REMARK VINA RESULT:   -10.796      3.150      5.826
REMARK INTER + INTRA:         -14.831
REMARK INTER:                 -14.029
REMARK INTRA:                  -0.803
REMARK UNBOUND:                -0.249
REMARK  Name = CHEMBL6354
REMARK  7 active torsions:
REMARK  status: ('A' for Active; 'I' for Inactive)
REMARK    1  A    between atoms: N_1  and  C_2
REMARK    2  A    between atoms: N_5  and  C_6
REMARK    3  A    between atoms: C_6  and  C_7
REMARK    4  A    between atoms: C_11  and  C_12
REMARK    5  A    between atoms: C_16  and  C_17
REMARK    6  A    between atoms: C_17  and  N_18
REMARK    7  A    between atoms: C_21  and  N_22
REMARK                            x       y       z     vdW  Elec       q    Type
REMARK                         _______ _______ _______ _____ _____    ______ ____
ROOT
ATOM      1  C   UNL     1      21.719  10.778 -15.995  0.00  0.00    -0.027 A 
ATOM      2  C   UNL     1      22.730  11.695 -15.667  0.00  0.00    +0.005 A 
ATOM      3  C   UNL     1      23.559  11.472 -14.571  0.00  0.00    +0.001 A 
ATOM      4  C   UNL     1      23.384  10.339 -13.776  0.00  0.00    +0.008 A 
ATOM      5  C   UNL     1      22.368   9.411 -14.052  0.00  0.00    -0.018 A 
ATOM      6  C   UNL     1      21.537   9.654 -15.166  0.00  0.00    +0.014 A 
ENDROOT
BRANCH   5   7
ATOM      7  C   UNL     1      22.187   8.216 -13.205  0.00  0.00    -0.018 A 
ATOM      8  C   UNL     1      23.276   7.403 -12.860  0.00  0.00    +0.008 A 
ATOM      9  C   UNL     1      23.105   6.272 -12.061  0.00  0.00    +0.001 A 
ATOM     10  C   UNL     1      21.841   5.933 -11.578  0.00  0.00    +0.005 A 
ATOM     11  C   UNL     1      20.731   6.731 -11.878  0.00  0.00    -0.027 A 
ATOM     12  C   UNL     1      20.917   7.858 -12.706  0.00  0.00    +0.014 A 
BRANCH  11  13
ATOM     13  C   UNL     1      19.342   6.389 -11.387  0.00  0.00    +0.157 C 
BRANCH  13  14
ATOM     14  N   UNL     1      19.265   5.014 -10.812  0.00  0.00    -0.342 N 
ATOM     15  C   UNL     1      19.213   3.996 -11.705  0.00  0.00    +0.088 A 
ATOM     16  C   UNL     1      19.191   2.675 -11.306  0.00  0.00    +0.041 A 
ATOM     17  C   UNL     1      19.188   2.358  -9.956  0.00  0.00    +0.035 A 
ATOM     18  C   UNL     1      19.300   3.406  -9.015  0.00  0.00    +0.019 A 
ATOM     19  C   UNL     1      19.401   3.161  -7.627  0.00  0.00    +0.012 A 
ATOM     20  C   UNL     1      19.469   4.198  -6.698  0.00  0.00    +0.001 A 
ATOM     21  C   UNL     1      19.435   5.511  -7.132  0.00  0.00    +0.002 A 
ATOM     22  C   UNL     1      19.354   5.792  -8.496  0.00  0.00    +0.026 A 
ATOM     23  C   UNL     1      19.307   4.763  -9.464  0.00  0.00    +0.051 A 
BRANCH  17  24
ATOM     24  N   UNL     1      19.291   1.007  -9.606  0.00  0.00    -0.357 N 
ATOM     25  H   UNL     1      19.520   0.800  -8.638  0.00  0.00    +0.142 HD
ATOM     26  H   UNL     1      18.550   0.393  -9.936  0.00  0.00    +0.142 HD
ENDBRANCH  17  24
ENDBRANCH  13  14
ENDBRANCH  11  13
ENDBRANCH   5   7
BRANCH   1  27
ATOM     27  C   UNL     1      20.837  11.066 -17.190  0.00  0.00    +0.157 C 
BRANCH  27  31
ATOM     28  C   UNL     1      23.078  12.434 -20.569  0.00  0.00    +0.035 A 
ATOM     29  C   UNL     1      23.524  11.410 -19.745  0.00  0.00    +0.041 A 
ATOM     30  C   UNL     1      22.757  11.002 -18.672  0.00  0.00    +0.088 A 
ATOM     31  N   UNL     1      21.585  11.603 -18.363  0.00  0.00    -0.342 N 
ATOM     32  C   UNL     1      21.112  12.651 -19.113  0.00  0.00    +0.051 A 
ATOM     33  C   UNL     1      19.897  13.307 -18.816  0.00  0.00    +0.026 A 
ATOM     34  C   UNL     1      19.453  14.397 -19.565  0.00  0.00    +0.002 A 
ATOM     35  C   UNL     1      20.211  14.857 -20.628  0.00  0.00    +0.001 A 
ATOM     36  C   UNL     1      21.409  14.223 -20.953  0.00  0.00    +0.012 A 
ATOM     37  C   UNL     1      21.883  13.106 -20.225  0.00  0.00    +0.019 A 
BRANCH  28  38
ATOM     38  N   UNL     1      23.945  12.889 -21.571  0.00  0.00    -0.357 N 
ATOM     39  H   UNL     1      24.066  13.897 -21.634  0.00  0.00    +0.142 HD
ATOM     40  H   UNL     1      23.800  12.497 -22.499  0.00  0.00    +0.142 HD
ENDBRANCH  28  38
ENDBRANCH  27  31
ENDBRANCH   1  27
TORSDOF 7
ENDMDL
