MODEL 1
REMARK VINA RESULT:   -13.234      0.000      0.000
REMARK INTER + INTRA:         -19.163
REMARK INTER:                 -17.875
REMARK INTRA:                  -1.288
REMARK UNBOUND:                -1.288
REMARK  Name = CHEMBL6354
REMARK  7 active torsions:
REMARK  status: ('A' for Active; 'I' for Inactive)
REMARK    1  A    between atoms: N_1  and  C_2
REMARK    2  A    between atoms: N_5  and  C_6
REMARK    3  A    between atoms: C_6  and  C_7
REMARK    4  A    between atoms: C_11  and  C_12
REMARK    5  A    between atoms: C_16  and  C_17
REMARK    6  A    between atoms: C_17  and  N_18
REMARK    7  A    between atoms: C_21  and  N_22
REMARK                            x       y       z     vdW  Elec       q    Type
REMARK                         _______ _______ _______ _____ _____    ______ ____
ROOT
ATOM      1  C   UNL     1     -31.598   8.205   7.212  0.00  0.00    -0.027 A 
ATOM      2  C   UNL     1     -32.083   8.001   5.912  0.00  0.00    +0.005 A 
ATOM      3  C   UNL     1     -32.801   6.850   5.595  0.00  0.00    +0.001 A 
ATOM      4  C   UNL     1     -33.032   5.878   6.568  0.00  0.00    +0.008 A 
ATOM      5  C   UNL     1     -32.541   6.028   7.874  0.00  0.00    -0.018 A 
ATOM      6  C   UNL     1     -31.816   7.200   8.175  0.00  0.00    +0.014 A 
ENDROOT
BRANCH   5   7
ATOM      7  C   UNL     1     -32.788   4.993   8.897  0.00  0.00    -0.018 A 
ATOM      8  C   UNL     1     -33.810   5.144   9.845  0.00  0.00    +0.008 A 
ATOM      9  C   UNL     1     -34.043   4.167  10.814  0.00  0.00    +0.001 A 
ATOM     10  C   UNL     1     -33.264   3.011  10.851  0.00  0.00    +0.005 A 
ATOM     11  C   UNL     1     -32.249   2.809   9.908  0.00  0.00    -0.027 A 
ATOM     12  C   UNL     1     -32.013   3.817   8.951  0.00  0.00    +0.014 A 
BRANCH  11  13
ATOM     13  C   UNL     1     -31.374   1.575   9.925  0.00  0.00    +0.157 C 
BRANCH  13  14
ATOM     14  N   UNL     1     -30.548   1.481  11.164  0.00  0.00    -0.342 N 
ATOM     15  C   UNL     1     -31.110   0.825  12.208  0.00  0.00    +0.088 A 
ATOM     16  C   UNL     1     -30.434   0.622  13.393  0.00  0.00    +0.041 A 
ATOM     17  C   UNL     1     -29.152   1.125  13.555  0.00  0.00    +0.035 A 
ATOM     18  C   UNL     1     -28.532   1.761  12.457  0.00  0.00    +0.019 A 
ATOM     19  C   UNL     1     -27.194   2.215  12.510  0.00  0.00    +0.012 A 
ATOM     20  C   UNL     1     -26.598   2.879  11.439  0.00  0.00    +0.001 A 
ATOM     21  C   UNL     1     -27.324   3.111  10.284  0.00  0.00    +0.002 A 
ATOM     22  C   UNL     1     -28.642   2.662  10.189  0.00  0.00    +0.026 A 
ATOM     23  C   UNL     1     -29.267   1.965  11.249  0.00  0.00    +0.051 A 
BRANCH  17  24
ATOM     24  N   UNL     1     -28.464   0.787  14.727  0.00  0.00    -0.357 N 
ATOM     25  H   UNL     1     -28.119   1.556  15.294  0.00  0.00    +0.142 HD
ATOM     26  H   UNL     1     -28.887   0.072  15.314  0.00  0.00    +0.142 HD
ENDBRANCH  17  24
ENDBRANCH  13  14
ENDBRANCH  11  13
ENDBRANCH   5   7
BRANCH   1  27
ATOM     27  C   UNL     1     -30.816   9.466   7.507  0.00  0.00    +0.157 C 
BRANCH  27  31
ATOM     28  C   UNL     1     -26.695   8.994   6.459  0.00  0.00    +0.035 A 
ATOM     29  C   UNL     1     -27.402   8.023   7.154  0.00  0.00    +0.041 A 
ATOM     30  C   UNL     1     -28.734   8.223   7.460  0.00  0.00    +0.088 A 
ATOM     31  N   UNL     1     -29.375   9.370   7.138  0.00  0.00    -0.342 N 
ATOM     32  C   UNL     1     -28.718  10.386   6.490  0.00  0.00    +0.051 A 
ATOM     33  C   UNL     1     -29.353  11.599   6.145  0.00  0.00    +0.026 A 
ATOM     34  C   UNL     1     -28.658  12.637   5.522  0.00  0.00    +0.002 A 
ATOM     35  C   UNL     1     -27.313  12.487   5.230  0.00  0.00    +0.001 A 
ATOM     36  C   UNL     1     -26.662  11.296   5.548  0.00  0.00    +0.012 A 
ATOM     37  C   UNL     1     -27.338  10.218   6.165  0.00  0.00    +0.019 A 
BRANCH  28  38
ATOM     38  N   UNL     1     -25.320   8.794   6.278  0.00  0.00    -0.357 N 
ATOM     39  H   UNL     1     -24.979   7.851   6.444  0.00  0.00    +0.142 HD
ATOM     40  H   UNL     1     -24.707   9.471   6.728  0.00  0.00    +0.142 HD
ENDBRANCH  28  38
ENDBRANCH  27  31
ENDBRANCH   1  27
TORSDOF 7
ENDMDL
MODEL 2
REMARK VINA RESULT:   -13.196      0.295      8.940
REMARK INTER + INTRA:         -19.112
REMARK INTER:                 -17.937
REMARK INTRA:                  -1.175
REMARK UNBOUND:                -1.288
REMARK  Name = CHEMBL6354
REMARK  7 active torsions:
REMARK  status: ('A' for Active; 'I' for Inactive)
REMARK    1  A    between atoms: N_1  and  C_2
REMARK    2  A    between atoms: N_5  and  C_6
REMARK    3  A    between atoms: C_6  and  C_7
REMARK    4  A    between atoms: C_11  and  C_12
REMARK    5  A    between atoms: C_16  and  C_17
REMARK    6  A    between atoms: C_17  and  N_18
REMARK    7  A    between atoms: C_21  and  N_22
REMARK                            x       y       z     vdW  Elec       q    Type
REMARK                         _______ _______ _______ _____ _____    ______ ____
ROOT
ATOM      1  C   UNL     1     -32.334   2.684  10.031  0.00  0.00    -0.027 A 
ATOM      2  C   UNL     1     -33.318   2.918  11.003  0.00  0.00    +0.005 A 
ATOM      3  C   UNL     1     -34.093   4.074  10.963  0.00  0.00    +0.001 A 
ATOM      4  C   UNL     1     -33.887   5.022   9.961  0.00  0.00    +0.008 A 
ATOM      5  C   UNL     1     -32.895   4.842   8.985  0.00  0.00    -0.018 A 
ATOM      6  C   UNL     1     -32.120   3.665   9.042  0.00  0.00    +0.014 A 
ENDROOT
BRANCH   5   7
ATOM      7  C   UNL     1     -32.682   5.851   7.930  0.00  0.00    -0.018 A 
ATOM      8  C   UNL     1     -33.121   5.628   6.617  0.00  0.00    +0.008 A 
ATOM      9  C   UNL     1     -32.917   6.581   5.618  0.00  0.00    +0.001 A 
ATOM     10  C   UNL     1     -32.280   7.786   5.911  0.00  0.00    +0.005 A 
ATOM     11  C   UNL     1     -31.848   8.060   7.214  0.00  0.00    -0.027 A 
ATOM     12  C   UNL     1     -32.041   7.076   8.207  0.00  0.00    +0.014 A 
BRANCH  11  13
ATOM     13  C   UNL     1     -31.138   9.348   7.569  0.00  0.00    +0.157 C 
BRANCH  13  14
ATOM     14  N   UNL     1     -29.682   9.302   7.251  0.00  0.00    -0.342 N 
ATOM     15  C   UNL     1     -29.039   8.150   7.564  0.00  0.00    +0.088 A 
ATOM     16  C   UNL     1     -27.704   7.957   7.276  0.00  0.00    +0.041 A 
ATOM     17  C   UNL     1     -26.969   8.971   6.679  0.00  0.00    +0.035 A 
ATOM     18  C   UNL     1     -27.639  10.155   6.296  0.00  0.00    +0.019 A 
ATOM     19  C   UNL     1     -26.984  11.195   5.597  0.00  0.00    +0.012 A 
ATOM     20  C   UNL     1     -27.636  12.378   5.256  0.00  0.00    +0.001 A 
ATOM     21  C   UNL     1     -28.962  12.558   5.608  0.00  0.00    +0.002 A 
ATOM     22  C   UNL     1     -29.646  11.546   6.283  0.00  0.00    +0.026 A 
ATOM     23  C   UNL     1     -29.019  10.325   6.622  0.00  0.00    +0.051 A 
BRANCH  17  24
ATOM     24  N   UNL     1     -25.654   8.683   6.296  0.00  0.00    -0.357 N 
ATOM     25  H   UNL     1     -24.977   9.435   6.378  0.00  0.00    +0.142 HD
ATOM     26  H   UNL     1     -25.261   7.810   6.640  0.00  0.00    +0.142 HD
ENDBRANCH  17  24
ENDBRANCH  13  14
ENDBRANCH  11  13
ENDBRANCH   5   7
BRANCH   1  27
ATOM     27  C   UNL     1     -31.511   1.418  10.120  0.00  0.00    +0.157 C 
BRANCH  27  31
ATOM     28  C   UNL     1     -29.291   1.012  13.754  0.00  0.00    +0.035 A 
ATOM     29  C   UNL     1     -30.613   0.607  13.641  0.00  0.00    +0.041 A 
ATOM     30  C   UNL     1     -31.282   0.754  12.441  0.00  0.00    +0.088 A 
ATOM     31  N   UNL     1     -30.696   1.327  11.365  0.00  0.00    -0.342 N 
ATOM     32  C   UNL     1     -29.405   1.788  11.428  0.00  0.00    +0.051 A 
ATOM     33  C   UNL     1     -28.765   2.398  10.327  0.00  0.00    +0.026 A 
ATOM     34  C   UNL     1     -27.465   2.898  10.421  0.00  0.00    +0.002 A 
ATOM     35  C   UNL     1     -26.776   2.801  11.617  0.00  0.00    +0.001 A 
ATOM     36  C   UNL     1     -27.376   2.192  12.718  0.00  0.00    +0.012 A 
ATOM     37  C   UNL     1     -28.686   1.661  12.654  0.00  0.00    +0.019 A 
BRANCH  28  38
ATOM     38  N   UNL     1     -28.697   0.950  15.022  0.00  0.00    -0.357 N 
ATOM     39  H   UNL     1     -28.004   0.218  15.156  0.00  0.00    +0.142 HD
ATOM     40  H   UNL     1     -29.334   0.977  15.816  0.00  0.00    +0.142 HD
ENDBRANCH  28  38
ENDBRANCH  27  31
ENDBRANCH   1  27
TORSDOF 7
ENDMDL
MODEL 3
REMARK VINA RESULT:   -12.554      3.295     10.075
REMARK INTER + INTRA:         -18.245
REMARK INTER:                 -17.110
REMARK INTRA:                  -1.135
REMARK UNBOUND:                -1.288
REMARK  Name = CHEMBL6354
REMARK  7 active torsions:
REMARK  status: ('A' for Active; 'I' for Inactive)
REMARK    1  A    between atoms: N_1  and  C_2
REMARK    2  A    between atoms: N_5  and  C_6
REMARK    3  A    between atoms: C_6  and  C_7
REMARK    4  A    between atoms: C_11  and  C_12
REMARK    5  A    between atoms: C_16  and  C_17
REMARK    6  A    between atoms: C_17  and  N_18
REMARK    7  A    between atoms: C_21  and  N_22
REMARK                            x       y       z     vdW  Elec       q    Type
REMARK                         _______ _______ _______ _____ _____    ______ ____
ROOT
ATOM      1  C   UNL     1     -34.172   3.432   8.599  0.00  0.00    -0.027 A 
ATOM      2  C   UNL     1     -33.434   3.249   9.779  0.00  0.00    +0.005 A 
ATOM      3  C   UNL     1     -32.411   4.130  10.119  0.00  0.00    +0.001 A 
ATOM      4  C   UNL     1     -32.099   5.200   9.281  0.00  0.00    +0.008 A 
ATOM      5  C   UNL     1     -32.793   5.405   8.078  0.00  0.00    -0.018 A 
ATOM      6  C   UNL     1     -33.825   4.501   7.750  0.00  0.00    +0.014 A 
ENDROOT
BRANCH   5   7
ATOM      7  C   UNL     1     -32.455   6.538   7.195  0.00  0.00    -0.018 A 
ATOM      8  C   UNL     1     -32.855   6.551   5.851  0.00  0.00    +0.008 A 
ATOM      9  C   UNL     1     -32.533   7.621   5.015  0.00  0.00    +0.001 A 
ATOM     10  C   UNL     1     -31.813   8.710   5.506  0.00  0.00    +0.005 A 
ATOM     11  C   UNL     1     -31.415   8.748   6.848  0.00  0.00    -0.027 A 
ATOM     12  C   UNL     1     -31.728   7.648   7.673  0.00  0.00    +0.014 A 
BRANCH  11  13
ATOM     13  C   UNL     1     -30.619   9.903   7.415  0.00  0.00    +0.157 C 
BRANCH  13  14
ATOM     14  N   UNL     1     -29.178   9.841   7.036  0.00  0.00    -0.342 N 
ATOM     15  C   UNL     1     -28.525   8.698   7.357  0.00  0.00    +0.088 A 
ATOM     16  C   UNL     1     -27.204   8.491   7.017  0.00  0.00    +0.041 A 
ATOM     17  C   UNL     1     -26.494   9.482   6.357  0.00  0.00    +0.035 A 
ATOM     18  C   UNL     1     -27.177  10.656   5.965  0.00  0.00    +0.019 A 
ATOM     19  C   UNL     1     -26.551  11.670   5.205  0.00  0.00    +0.012 A 
ATOM     20  C   UNL     1     -27.214  12.845   4.855  0.00  0.00    +0.001 A 
ATOM     21  C   UNL     1     -28.524  13.040   5.259  0.00  0.00    +0.002 A 
ATOM     22  C   UNL     1     -29.180  12.053   5.995  0.00  0.00    +0.026 A 
ATOM     23  C   UNL     1     -28.541  10.842   6.345  0.00  0.00    +0.051 A 
BRANCH  17  24
ATOM     24  N   UNL     1     -25.197   9.177   5.927  0.00  0.00    -0.357 N 
ATOM     25  H   UNL     1     -24.752   8.369   6.351  0.00  0.00    +0.142 HD
ATOM     26  H   UNL     1     -25.036   9.187   4.923  0.00  0.00    +0.142 HD
ENDBRANCH  17  24
ENDBRANCH  13  14
ENDBRANCH  11  13
ENDBRANCH   5   7
BRANCH   1  27
ATOM     27  C   UNL     1     -35.268   2.444   8.266  0.00  0.00    +0.157 C 
BRANCH  27  31
ATOM     28  C   UNL     1     -38.277   2.137  11.292  0.00  0.00    +0.035 A 
ATOM     29  C   UNL     1     -37.468   1.068  10.936  0.00  0.00    +0.041 A 
ATOM     30  C   UNL     1     -36.506   1.223   9.958  0.00  0.00    +0.088 A 
ATOM     31  N   UNL     1     -36.349   2.390   9.292  0.00  0.00    -0.342 N 
ATOM     32  C   UNL     1     -37.149   3.471   9.568  0.00  0.00    +0.051 A 
ATOM     33  C   UNL     1     -37.018   4.702   8.887  0.00  0.00    +0.026 A 
ATOM     34  C   UNL     1     -37.867   5.777   9.152  0.00  0.00    +0.002 A 
ATOM     35  C   UNL     1     -38.865   5.649  10.102  0.00  0.00    +0.001 A 
ATOM     36  C   UNL     1     -39.011   4.450  10.799  0.00  0.00    +0.012 A 
ATOM     37  C   UNL     1     -38.160   3.345  10.567  0.00  0.00    +0.019 A 
BRANCH  28  38
ATOM     38  N   UNL     1     -39.313   1.896  12.204  0.00  0.00    -0.357 N 
ATOM     39  H   UNL     1     -39.610   2.691  12.765  0.00  0.00    +0.142 HD
ATOM     40  H   UNL     1     -39.206   1.073  12.795  0.00  0.00    +0.142 HD
ENDBRANCH  28  38
ENDBRANCH  27  31
ENDBRANCH   1  27
TORSDOF 7
ENDMDL
