MODEL 1
REMARK VINA RESULT:   -11.546      0.000      0.000
REMARK INTER + INTRA:         -16.589
REMARK INTER:                 -15.933
REMARK INTRA:                  -0.656
REMARK UNBOUND:                -0.656
REMARK  Name = CHEMBL12018
REMARK  7 active torsions:
REMARK  status: ('A' for Active; 'I' for Inactive)
REMARK    1  A    between atoms: C_2  and  C_3
REMARK    2  A    between atoms: C_2  and  C_23
REMARK    3  A    between atoms: C_4  and  C_5
REMARK    4  A    between atoms: C_9  and  C_10
REMARK    5  A    between atoms: C_11  and  C_12
REMARK    6  A    between atoms: C_25  and  C_26
REMARK    7  A    between atoms: C_33  and  O_34
REMARK                            x       y       z     vdW  Elec       q    Type
REMARK                         _______ _______ _______ _____ _____    ______ ____
ROOT
ATOM      1  C   UNL     1      21.031   7.223 -11.896  0.00  0.00    +0.052 C 
ATOM      2  C   UNL     1      22.259   7.700 -12.150  0.00  0.00    +0.012 C 
ENDROOT
BRANCH   2   3
ATOM      3  C   UNL     1      22.529   9.103 -12.495  0.00  0.00    -0.024 A 
ATOM      4  C   UNL     1      22.830  10.004 -11.467  0.00  0.00    +0.008 A 
ATOM      5  C   UNL     1      23.060  11.350 -11.750  0.00  0.00    +0.001 A 
ATOM      6  C   UNL     1      22.983  11.812 -13.065  0.00  0.00    +0.008 A 
ATOM      7  C   UNL     1      22.682  10.931 -14.110  0.00  0.00    -0.024 A 
ATOM      8  C   UNL     1      22.439   9.582 -13.811  0.00  0.00    +0.016 A 
BRANCH   7   9
ATOM      9  C   UNL     1      22.552  11.384 -15.502  0.00  0.00    +0.010 C 
ATOM     10  C   UNL     1      21.851  10.722 -16.438  0.00  0.00    +0.028 C 
BRANCH  10  11
ATOM     11  C   UNL     1      21.699  11.127 -17.841  0.00  0.00    +0.065 A 
ATOM     12  C   UNL     1      20.471  11.406 -18.424  0.00  0.00    +0.028 A 
ATOM     13  C   UNL     1      20.435  11.753 -19.772  0.00  0.00    +0.012 A 
ATOM     14  C   UNL     1      21.624  11.805 -20.507  0.00  0.00    +0.000 A 
ATOM     15  C   UNL     1      21.639  12.153 -21.869  0.00  0.00    +0.010 A 
ATOM     16  C   UNL     1      22.841  12.191 -22.572  0.00  0.00    +0.001 A 
ATOM     17  C   UNL     1      24.029  11.883 -21.919  0.00  0.00    +0.002 A 
ATOM     18  C   UNL     1      24.008  11.539 -20.564  0.00  0.00    +0.028 A 
ATOM     19  C   UNL     1      22.825  11.492 -19.838  0.00  0.00    +0.072 A 
ATOM     20  N   UNL     1      22.860  11.155 -18.537  0.00  0.00    -0.247 NA
ENDBRANCH  10  11
ENDBRANCH   7   9
ENDBRANCH   2   3
BRANCH   1  22
ATOM     21  O   UNL     1      21.109   4.899 -12.242  0.00  0.00    -0.287 OA
ATOM     22  C   UNL     1      20.726   5.818 -11.520  0.00  0.00    +0.190 C 
BRANCH  22  23
ATOM     23  C   UNL     1      19.923   5.508 -10.320  0.00  0.00    +0.064 A 
ATOM     24  C   UNL     1      18.885   4.575 -10.460  0.00  0.00    +0.027 A 
ATOM     25  C   UNL     1      18.094   4.221  -9.358  0.00  0.00    +0.024 A 
ATOM     26  C   UNL     1      18.373   4.805  -8.112  0.00  0.00    +0.015 A 
ATOM     27  C   UNL     1      19.423   5.718  -7.963  0.00  0.00    +0.047 A 
ATOM     28  C   UNL     1      20.201   6.063  -9.067  0.00  0.00    +0.128 A 
BRANCH  25  29
ATOM     29  C   UNL     1      17.006   3.264  -9.506  0.00  0.00    +0.204 A 
ATOM     30  N   UNL     1      16.372   3.028 -10.705  0.00  0.00    -0.108 NA
ATOM     31  N   UNL     1      15.441   2.114 -10.475  0.00  0.00    -0.049 NA
ATOM     32  N   UNL     1      15.553   1.841  -9.172  0.00  0.00    -0.176 N 
ATOM     33  N   UNL     1      16.497   2.521  -8.505  0.00  0.00    -0.133 NA
ATOM     34  H   UNL     1      14.952   1.159  -8.717  0.00  0.00    +0.214 HD
ENDBRANCH  25  29
BRANCH  28  35
ATOM     35  O   UNL     1      21.247   6.927  -8.911  0.00  0.00    -0.506 OA
ATOM     36  H   UNL     1      21.089   7.495  -8.139  0.00  0.00    +0.292 HD
ENDBRANCH  28  35
ENDBRANCH  22  23
ENDBRANCH   1  22
TORSDOF 7
ENDMDL
MODEL 2
REMARK VINA RESULT:   -11.518      1.693      2.195
REMARK INTER + INTRA:         -16.550
REMARK INTER:                 -15.751
REMARK INTRA:                  -0.799
REMARK UNBOUND:                -0.656
REMARK  Name = CHEMBL12018
REMARK  7 active torsions:
REMARK  status: ('A' for Active; 'I' for Inactive)
REMARK    1  A    between atoms: C_2  and  C_3
REMARK    2  A    between atoms: C_2  and  C_23
REMARK    3  A    between atoms: C_4  and  C_5
REMARK    4  A    between atoms: C_9  and  C_10
REMARK    5  A    between atoms: C_11  and  C_12
REMARK    6  A    between atoms: C_25  and  C_26
REMARK    7  A    between atoms: C_33  and  O_34
REMARK                            x       y       z     vdW  Elec       q    Type
REMARK                         _______ _______ _______ _____ _____    ______ ____
ROOT
ATOM      1  C   UNL     1      21.005   6.697 -11.951  0.00  0.00    +0.052 C 
ATOM      2  C   UNL     1      21.951   7.625 -11.745  0.00  0.00    +0.012 C 
ENDROOT
BRANCH   2   3
ATOM      3  C   UNL     1      21.968   8.930 -12.421  0.00  0.00    -0.024 A 
ATOM      4  C   UNL     1      22.500  10.033 -11.742  0.00  0.00    +0.008 A 
ATOM      5  C   UNL     1      22.503  11.295 -12.336  0.00  0.00    +0.001 A 
ATOM      6  C   UNL     1      21.969  11.469 -13.614  0.00  0.00    +0.008 A 
ATOM      7  C   UNL     1      21.431  10.381 -14.312  0.00  0.00    -0.024 A 
ATOM      8  C   UNL     1      21.419   9.120 -13.697  0.00  0.00    +0.016 A 
BRANCH   7   9
ATOM      9  C   UNL     1      20.821  10.529 -15.641  0.00  0.00    +0.010 C 
ATOM     10  C   UNL     1      21.432  10.175 -16.784  0.00  0.00    +0.028 C 
BRANCH  10  11
ATOM     11  C   UNL     1      20.871  10.311 -18.134  0.00  0.00    +0.065 A 
ATOM     12  C   UNL     1      20.826  11.516 -18.822  0.00  0.00    +0.028 A 
ATOM     13  C   UNL     1      20.245  11.541 -20.087  0.00  0.00    +0.012 A 
ATOM     14  C   UNL     1      19.715  10.366 -20.631  0.00  0.00    +0.000 A 
ATOM     15  C   UNL     1      19.121  10.341 -21.905  0.00  0.00    +0.010 A 
ATOM     16  C   UNL     1      18.600   9.154 -22.415  0.00  0.00    +0.001 A 
ATOM     17  C   UNL     1      18.671   7.991 -21.656  0.00  0.00    +0.002 A 
ATOM     18  C   UNL     1      19.264   8.022 -20.390  0.00  0.00    +0.028 A 
ATOM     19  C   UNL     1      19.791   9.190 -19.857  0.00  0.00    +0.072 A 
ATOM     20  N   UNL     1      20.350   9.166 -18.634  0.00  0.00    -0.247 NA
ENDBRANCH  10  11
ENDBRANCH   7   9
ENDBRANCH   2   3
BRANCH   1  22
ATOM     21  O   UNL     1      21.671   4.463 -11.645  0.00  0.00    -0.287 OA
ATOM     22  C   UNL     1      20.943   5.379 -11.266  0.00  0.00    +0.190 C 
BRANCH  22  23
ATOM     23  C   UNL     1      19.982   5.134 -10.172  0.00  0.00    +0.064 A 
ATOM     24  C   UNL     1      19.001   4.153 -10.381  0.00  0.00    +0.027 A 
ATOM     25  C   UNL     1      18.068   3.857  -9.378  0.00  0.00    +0.024 A 
ATOM     26  C   UNL     1      18.147   4.546  -8.157  0.00  0.00    +0.015 A 
ATOM     27  C   UNL     1      19.140   5.508  -7.936  0.00  0.00    +0.047 A 
ATOM     28  C   UNL     1      20.061   5.794  -8.942  0.00  0.00    +0.128 A 
BRANCH  25  29
ATOM     29  C   UNL     1      17.038   2.850  -9.600  0.00  0.00    +0.204 A 
ATOM     30  N   UNL     1      16.979   2.076 -10.736  0.00  0.00    -0.108 NA
ATOM     31  N   UNL     1      15.926   1.282 -10.607  0.00  0.00    -0.049 NA
ATOM     32  N   UNL     1      15.407   1.604  -9.419  0.00  0.00    -0.176 N 
ATOM     33  N   UNL     1      16.039   2.573  -8.741  0.00  0.00    -0.133 NA
ATOM     34  H   UNL     1      14.578   1.140  -9.056  0.00  0.00    +0.214 HD
ENDBRANCH  25  29
BRANCH  28  35
ATOM     35  O   UNL     1      21.050   6.707  -8.711  0.00  0.00    -0.506 OA
ATOM     36  H   UNL     1      21.882   6.244  -8.513  0.00  0.00    +0.292 HD
ENDBRANCH  28  35
ENDBRANCH  22  23
ENDBRANCH   1  22
TORSDOF 7
ENDMDL
MODEL 3
REMARK VINA RESULT:   -10.557      3.377     12.176
REMARK INTER + INTRA:         -15.224
REMARK INTER:                 -14.075
REMARK INTRA:                  -1.149
REMARK UNBOUND:                -0.656
REMARK  Name = CHEMBL12018
REMARK  7 active torsions:
REMARK  status: ('A' for Active; 'I' for Inactive)
REMARK    1  A    between atoms: C_2  and  C_3
REMARK    2  A    between atoms: C_2  and  C_23
REMARK    3  A    between atoms: C_4  and  C_5
REMARK    4  A    between atoms: C_9  and  C_10
REMARK    5  A    between atoms: C_11  and  C_12
REMARK    6  A    between atoms: C_25  and  C_26
REMARK    7  A    between atoms: C_33  and  O_34
REMARK                            x       y       z     vdW  Elec       q    Type
REMARK                         _______ _______ _______ _____ _____    ______ ____
ROOT
ATOM      1  C   UNL     1      21.533  10.347 -17.088  0.00  0.00    +0.052 C 
ATOM      2  C   UNL     1      20.902  10.464 -15.910  0.00  0.00    +0.012 C 
ENDROOT
BRANCH   2   3
ATOM      3  C   UNL     1      21.549  10.207 -14.615  0.00  0.00    -0.024 A 
ATOM      4  C   UNL     1      22.545  11.086 -14.173  0.00  0.00    +0.008 A 
ATOM      5  C   UNL     1      23.206  10.858 -12.965  0.00  0.00    +0.001 A 
ATOM      6  C   UNL     1      22.882   9.743 -12.190  0.00  0.00    +0.008 A 
ATOM      7  C   UNL     1      21.890   8.850 -12.612  0.00  0.00    -0.024 A 
ATOM      8  C   UNL     1      21.244   9.082 -13.835  0.00  0.00    +0.016 A 
BRANCH   7   9
ATOM      9  C   UNL     1      21.548   7.642 -11.846  0.00  0.00    +0.010 C 
ATOM     10  C   UNL     1      20.454   6.899 -12.078  0.00  0.00    +0.028 C 
BRANCH  10  11
ATOM     11  C   UNL     1      20.063   5.693 -11.336  0.00  0.00    +0.065 A 
ATOM     12  C   UNL     1      19.631   4.527 -11.952  0.00  0.00    +0.028 A 
ATOM     13  C   UNL     1      19.256   3.450 -11.153  0.00  0.00    +0.012 A 
ATOM     14  C   UNL     1      19.314   3.565  -9.761  0.00  0.00    +0.000 A 
ATOM     15  C   UNL     1      18.948   2.505  -8.913  0.00  0.00    +0.010 A 
ATOM     16  C   UNL     1      19.014   2.655  -7.530  0.00  0.00    +0.001 A 
ATOM     17  C   UNL     1      19.445   3.861  -6.990  0.00  0.00    +0.002 A 
ATOM     18  C   UNL     1      19.808   4.913  -7.837  0.00  0.00    +0.028 A 
ATOM     19  C   UNL     1      19.752   4.791  -9.219  0.00  0.00    +0.072 A 
ATOM     20  N   UNL     1      20.112   5.833  -9.991  0.00  0.00    -0.247 NA
ENDBRANCH  10  11
ENDBRANCH   7   9
ENDBRANCH   2   3
BRANCH   1  22
ATOM     21  O   UNL     1      20.254   9.750 -18.968  0.00  0.00    -0.287 OA
ATOM     22  C   UNL     1      20.917  10.623 -18.412  0.00  0.00    +0.190 C 
BRANCH  22  23
ATOM     23  C   UNL     1      21.133  11.914 -19.097  0.00  0.00    +0.064 A 
ATOM     24  C   UNL     1      22.154  12.743 -18.607  0.00  0.00    +0.027 A 
ATOM     25  C   UNL     1      22.425  13.973 -19.221  0.00  0.00    +0.024 A 
ATOM     26  C   UNL     1      21.669  14.350 -20.343  0.00  0.00    +0.015 A 
ATOM     27  C   UNL     1      20.667  13.515 -20.848  0.00  0.00    +0.047 A 
ATOM     28  C   UNL     1      20.405  12.294 -20.229  0.00  0.00    +0.128 A 
BRANCH  25  29
ATOM     29  C   UNL     1      23.474  14.842 -18.703  0.00  0.00    +0.204 A 
ATOM     30  N   UNL     1      23.561  15.205 -17.378  0.00  0.00    -0.108 NA
ATOM     31  N   UNL     1      24.618  15.995 -17.264  0.00  0.00    -0.049 NA
ATOM     32  N   UNL     1      25.116  16.071 -18.501  0.00  0.00    -0.176 N 
ATOM     33  N   UNL     1      24.455  15.387 -19.447  0.00  0.00    -0.133 NA
ATOM     34  H   UNL     1      25.947  16.618 -18.709  0.00  0.00    +0.214 HD
ENDBRANCH  25  29
BRANCH  28  35
ATOM     35  O   UNL     1      19.451  11.466 -20.747  0.00  0.00    -0.506 OA
ATOM     36  H   UNL     1      18.591  11.918 -20.744  0.00  0.00    +0.292 HD
ENDBRANCH  28  35
ENDBRANCH  22  23
ENDBRANCH   1  22
TORSDOF 7
ENDMDL
