MODEL 1
REMARK VINA RESULT:   -13.911      0.000      0.000
REMARK INTER + INTRA:         -19.904
REMARK INTER:                 -19.197
REMARK INTRA:                  -0.707
REMARK UNBOUND:                -0.707
REMARK  Name = CHEMBL12018
REMARK  7 active torsions:
REMARK  status: ('A' for Active; 'I' for Inactive)
REMARK    1  A    between atoms: C_2  and  C_3
REMARK    2  A    between atoms: C_2  and  C_23
REMARK    3  A    between atoms: C_4  and  C_5
REMARK    4  A    between atoms: C_9  and  C_10
REMARK    5  A    between atoms: C_11  and  C_12
REMARK    6  A    between atoms: C_25  and  C_26
REMARK    7  A    between atoms: C_33  and  O_34
REMARK                            x       y       z     vdW  Elec       q    Type
REMARK                         _______ _______ _______ _____ _____    ______ ____
ROOT
ATOM      1  C   UNL     1      -3.670 -12.844 -51.360  0.00  0.00    +0.052 C 
ATOM      2  C   UNL     1      -4.879 -12.466 -51.802  0.00  0.00    +0.012 C 
ENDROOT
BRANCH   2   3
ATOM      3  C   UNL     1      -5.698 -13.276 -52.716  0.00  0.00    -0.024 A 
ATOM      4  C   UNL     1      -7.080 -13.340 -52.504  0.00  0.00    +0.008 A 
ATOM      5  C   UNL     1      -7.886 -14.124 -53.329  0.00  0.00    +0.001 A 
ATOM      6  C   UNL     1      -7.317 -14.857 -54.371  0.00  0.00    +0.008 A 
ATOM      7  C   UNL     1      -5.937 -14.810 -54.602  0.00  0.00    -0.024 A 
ATOM      8  C   UNL     1      -5.135 -14.030 -53.756  0.00  0.00    +0.016 A 
BRANCH   7   9
ATOM      9  C   UNL     1      -5.293 -15.599 -55.662  0.00  0.00    +0.010 C 
ATOM     10  C   UNL     1      -4.661 -15.056 -56.715  0.00  0.00    +0.028 C 
BRANCH  10  11
ATOM     11  C   UNL     1      -4.012 -15.799 -57.802  0.00  0.00    +0.065 A 
ATOM     12  C   UNL     1      -3.954 -15.339 -59.111  0.00  0.00    +0.028 A 
ATOM     13  C   UNL     1      -3.341 -16.137 -60.072  0.00  0.00    +0.012 A 
ATOM     14  C   UNL     1      -2.806 -17.377 -59.708  0.00  0.00    +0.000 A 
ATOM     15  C   UNL     1      -2.175 -18.216 -60.642  0.00  0.00    +0.010 A 
ATOM     16  C   UNL     1      -1.658 -19.448 -60.245  0.00  0.00    +0.001 A 
ATOM     17  C   UNL     1      -1.769 -19.843 -58.917  0.00  0.00    +0.002 A 
ATOM     18  C   UNL     1      -2.397 -19.004 -57.992  0.00  0.00    +0.028 A 
ATOM     19  C   UNL     1      -2.922 -17.772 -58.359  0.00  0.00    +0.072 A 
ATOM     20  N   UNL     1      -3.517 -17.003 -57.430  0.00  0.00    -0.247 NA
ENDBRANCH  10  11
ENDBRANCH   7   9
ENDBRANCH   2   3
BRANCH   1  22
ATOM     21  O   UNL     1      -2.507 -10.910 -50.700  0.00  0.00    -0.287 OA
ATOM     22  C   UNL     1      -2.828 -12.062 -50.416  0.00  0.00    +0.190 C 
BRANCH  22  23
ATOM     23  C   UNL     1      -2.324 -12.667 -49.166  0.00  0.00    +0.064 A 
ATOM     24  C   UNL     1      -0.950 -12.557 -48.904  0.00  0.00    +0.027 A 
ATOM     25  C   UNL     1      -0.407 -13.092 -47.728  0.00  0.00    +0.024 A 
ATOM     26  C   UNL     1      -1.266 -13.723 -46.813  0.00  0.00    +0.015 A 
ATOM     27  C   UNL     1      -2.640 -13.812 -47.061  0.00  0.00    +0.047 A 
ATOM     28  C   UNL     1      -3.168 -13.277 -48.234  0.00  0.00    +0.128 A 
BRANCH  25  29
ATOM     29  C   UNL     1       1.023 -12.993 -47.462  0.00  0.00    +0.204 A 
ATOM     30  N   UNL     1       1.972 -13.651 -48.210  0.00  0.00    -0.108 NA
ATOM     31  N   UNL     1       3.152 -13.342 -47.692  0.00  0.00    -0.049 NA
ATOM     32  N   UNL     1       2.869 -12.525 -46.674  0.00  0.00    -0.176 N 
ATOM     33  N   UNL     1       1.568 -12.269 -46.467  0.00  0.00    -0.133 NA
ATOM     34  H   UNL     1       3.600 -12.126 -46.092  0.00  0.00    +0.214 HD
ENDBRANCH  25  29
BRANCH  28  35
ATOM     35  O   UNL     1      -4.514 -13.335 -48.456  0.00  0.00    -0.506 OA
ATOM     36  H   UNL     1      -4.733 -12.839 -49.263  0.00  0.00    +0.292 HD
ENDBRANCH  28  35
ENDBRANCH  22  23
ENDBRANCH   1  22
TORSDOF 7
ENDMDL
MODEL 2
REMARK VINA RESULT:   -11.877      6.897     13.381
REMARK INTER + INTRA:         -17.097
REMARK INTER:                 -15.884
REMARK INTRA:                  -1.213
REMARK UNBOUND:                -0.707
REMARK  Name = CHEMBL12018
REMARK  7 active torsions:
REMARK  status: ('A' for Active; 'I' for Inactive)
REMARK    1  A    between atoms: C_2  and  C_3
REMARK    2  A    between atoms: C_2  and  C_23
REMARK    3  A    between atoms: C_4  and  C_5
REMARK    4  A    between atoms: C_9  and  C_10
REMARK    5  A    between atoms: C_11  and  C_12
REMARK    6  A    between atoms: C_25  and  C_26
REMARK    7  A    between atoms: C_33  and  O_34
REMARK                            x       y       z     vdW  Elec       q    Type
REMARK                         _______ _______ _______ _____ _____    ______ ____
ROOT
ATOM      1  C   UNL     1      -3.108 -18.001 -61.949  0.00  0.00    +0.052 C 
ATOM      2  C   UNL     1      -3.078 -16.829 -61.298  0.00  0.00    +0.012 C 
ENDROOT
BRANCH   2   3
ATOM      3  C   UNL     1      -2.724 -16.699 -59.877  0.00  0.00    -0.024 A 
ATOM      4  C   UNL     1      -1.435 -17.061 -59.468  0.00  0.00    +0.008 A 
ATOM      5  C   UNL     1      -1.071 -16.983 -58.124  0.00  0.00    +0.001 A 
ATOM      6  C   UNL     1      -1.996 -16.549 -57.173  0.00  0.00    +0.008 A 
ATOM      7  C   UNL     1      -3.291 -16.183 -57.557  0.00  0.00    -0.024 A 
ATOM      8  C   UNL     1      -3.650 -16.280 -58.910  0.00  0.00    +0.016 A 
BRANCH   7   9
ATOM      9  C   UNL     1      -4.307 -15.760 -56.582  0.00  0.00    +0.010 C 
ATOM     10  C   UNL     1      -5.578 -15.475 -56.908  0.00  0.00    +0.028 C 
BRANCH  10  11
ATOM     11  C   UNL     1      -6.625 -15.040 -55.975  0.00  0.00    +0.065 A 
ATOM     12  C   UNL     1      -7.722 -14.281 -56.361  0.00  0.00    +0.028 A 
ATOM     13  C   UNL     1      -8.642 -13.896 -55.390  0.00  0.00    +0.012 A 
ATOM     14  C   UNL     1      -8.443 -14.271 -54.057  0.00  0.00    +0.000 A 
ATOM     15  C   UNL     1      -9.345 -13.908 -53.042  0.00  0.00    +0.010 A 
ATOM     16  C   UNL     1      -9.113 -14.294 -51.724  0.00  0.00    +0.001 A 
ATOM     17  C   UNL     1      -7.983 -15.042 -51.416  0.00  0.00    +0.002 A 
ATOM     18  C   UNL     1      -7.089 -15.401 -52.430  0.00  0.00    +0.028 A 
ATOM     19  C   UNL     1      -7.294 -15.029 -53.751  0.00  0.00    +0.072 A 
ATOM     20  N   UNL     1      -6.403 -15.399 -54.689  0.00  0.00    -0.247 NA
ENDBRANCH  10  11
ENDBRANCH   7   9
ENDBRANCH   2   3
BRANCH   1  22
ATOM     21  O   UNL     1      -2.688 -17.688 -64.241  0.00  0.00    -0.287 OA
ATOM     22  C   UNL     1      -3.436 -18.165 -63.390  0.00  0.00    +0.190 C 
BRANCH  22  23
ATOM     23  C   UNL     1      -4.676 -18.845 -63.815  0.00  0.00    +0.064 A 
ATOM     24  C   UNL     1      -4.863 -20.171 -63.395  0.00  0.00    +0.027 A 
ATOM     25  C   UNL     1      -6.025 -20.870 -63.747  0.00  0.00    +0.024 A 
ATOM     26  C   UNL     1      -7.003 -20.214 -64.512  0.00  0.00    +0.015 A 
ATOM     27  C   UNL     1      -6.830 -18.884 -64.913  0.00  0.00    +0.047 A 
ATOM     28  C   UNL     1      -5.670 -18.199 -64.557  0.00  0.00    +0.128 A 
BRANCH  25  29
ATOM     29  C   UNL     1      -6.213 -22.252 -63.324  0.00  0.00    +0.204 A 
ATOM     30  N   UNL     1      -6.753 -23.220 -64.141  0.00  0.00    -0.108 NA
ATOM     31  N   UNL     1      -6.780 -24.344 -63.441  0.00  0.00    -0.049 NA
ATOM     32  N   UNL     1      -6.263 -24.012 -62.254  0.00  0.00    -0.176 N 
ATOM     33  N   UNL     1      -5.896 -22.731 -62.107  0.00  0.00    -0.133 NA
ATOM     34  H   UNL     1      -6.159 -24.696 -61.509  0.00  0.00    +0.214 HD
ENDBRANCH  25  29
BRANCH  28  35
ATOM     35  O   UNL     1      -5.521 -16.891 -64.919  0.00  0.00    -0.506 OA
ATOM     36  H   UNL     1      -5.103 -16.398 -64.193  0.00  0.00    +0.292 HD
ENDBRANCH  28  35
ENDBRANCH  22  23
ENDBRANCH   1  22
TORSDOF 7
ENDMDL
MODEL 3
REMARK VINA RESULT:   -11.790      6.783     12.574
REMARK INTER + INTRA:         -16.977
REMARK INTER:                 -15.765
REMARK INTRA:                  -1.212
REMARK UNBOUND:                -0.707
REMARK  Name = CHEMBL12018
REMARK  7 active torsions:
REMARK  status: ('A' for Active; 'I' for Inactive)
REMARK    1  A    between atoms: C_2  and  C_3
REMARK    2  A    between atoms: C_2  and  C_23
REMARK    3  A    between atoms: C_4  and  C_5
REMARK    4  A    between atoms: C_9  and  C_10
REMARK    5  A    between atoms: C_11  and  C_12
REMARK    6  A    between atoms: C_25  and  C_26
REMARK    7  A    between atoms: C_33  and  O_34
REMARK                            x       y       z     vdW  Elec       q    Type
REMARK                         _______ _______ _______ _____ _____    ______ ____
ROOT
ATOM      1  C   UNL     1      -2.760 -18.799 -60.863  0.00  0.00    +0.052 C 
ATOM      2  C   UNL     1      -2.193 -18.841 -59.649  0.00  0.00    +0.012 C 
ENDROOT
BRANCH   2   3
ATOM      3  C   UNL     1      -2.368 -17.792 -58.635  0.00  0.00    -0.024 A 
ATOM      4  C   UNL     1      -1.231 -17.192 -58.082  0.00  0.00    +0.008 A 
ATOM      5  C   UNL     1      -1.354 -16.216 -57.093  0.00  0.00    +0.001 A 
ATOM      6  C   UNL     1      -2.619 -15.834 -56.642  0.00  0.00    +0.008 A 
ATOM      7  C   UNL     1      -3.771 -16.420 -57.179  0.00  0.00    -0.024 A 
ATOM      8  C   UNL     1      -3.633 -17.411 -58.162  0.00  0.00    +0.016 A 
BRANCH   7   9
ATOM      9  C   UNL     1      -5.119 -16.076 -56.703  0.00  0.00    +0.010 C 
ATOM     10  C   UNL     1      -5.355 -15.266 -55.657  0.00  0.00    +0.028 C 
BRANCH  10  11
ATOM     11  C   UNL     1      -6.679 -14.900 -55.138  0.00  0.00    +0.065 A 
ATOM     12  C   UNL     1      -7.751 -14.565 -55.954  0.00  0.00    +0.028 A 
ATOM     13  C   UNL     1      -8.956 -14.205 -55.358  0.00  0.00    +0.012 A 
ATOM     14  C   UNL     1      -9.061 -14.180 -53.963  0.00  0.00    +0.000 A 
ATOM     15  C   UNL     1     -10.257 -13.826 -53.316  0.00  0.00    +0.010 A 
ATOM     16  C   UNL     1     -10.325 -13.807 -51.924  0.00  0.00    +0.001 A 
ATOM     17  C   UNL     1      -9.202 -14.142 -51.177  0.00  0.00    +0.002 A 
ATOM     18  C   UNL     1      -8.015 -14.495 -51.826  0.00  0.00    +0.028 A 
ATOM     19  C   UNL     1      -7.918 -14.521 -53.211  0.00  0.00    +0.072 A 
ATOM     20  N   UNL     1      -6.752 -14.867 -53.787  0.00  0.00    -0.247 NA
ENDBRANCH  10  11
ENDBRANCH   7   9
ENDBRANCH   2   3
BRANCH   1  22
ATOM     21  O   UNL     1      -3.176 -20.941 -61.739  0.00  0.00    -0.287 OA
ATOM     22  C   UNL     1      -2.625 -19.854 -61.902  0.00  0.00    +0.190 C 
BRANCH  22  23
ATOM     23  C   UNL     1      -1.793 -19.637 -63.103  0.00  0.00    +0.064 A 
ATOM     24  C   UNL     1      -0.580 -18.952 -62.934  0.00  0.00    +0.027 A 
ATOM     25  C   UNL     1       0.267 -18.728 -64.028  0.00  0.00    +0.024 A 
ATOM     26  C   UNL     1      -0.114 -19.216 -65.288  0.00  0.00    +0.015 A 
ATOM     27  C   UNL     1      -1.311 -19.921 -65.456  0.00  0.00    +0.047 A 
ATOM     28  C   UNL     1      -2.146 -20.137 -64.361  0.00  0.00    +0.128 A 
BRANCH  25  29
ATOM     29  C   UNL     1       1.519 -18.002 -63.857  0.00  0.00    +0.204 A 
ATOM     30  N   UNL     1       2.308 -17.608 -64.913  0.00  0.00    -0.108 NA
ATOM     31  N   UNL     1       3.358 -16.986 -64.398  0.00  0.00    -0.049 NA
ATOM     32  N   UNL     1       3.159 -17.029 -63.078  0.00  0.00    -0.176 N 
ATOM     33  N   UNL     1       2.043 -17.649 -62.668  0.00  0.00    -0.133 NA
ATOM     34  H   UNL     1       3.821 -16.615 -62.426  0.00  0.00    +0.214 HD
ENDBRANCH  25  29
BRANCH  28  35
ATOM     35  O   UNL     1      -3.296 -20.855 -64.520  0.00  0.00    -0.506 OA
ATOM     36  H   UNL     1      -4.062 -20.260 -64.470  0.00  0.00    +0.292 HD
ENDBRANCH  28  35
ENDBRANCH  22  23
ENDBRANCH   1  22
TORSDOF 7
ENDMDL
