MODEL 1
REMARK VINA RESULT:   -13.115      0.000      0.000
REMARK INTER + INTRA:         -19.314
REMARK INTER:                 -18.099
REMARK INTRA:                  -1.216
REMARK UNBOUND:                -1.216
REMARK  Name = CHEMBL12018
REMARK  7 active torsions:
REMARK  status: ('A' for Active; 'I' for Inactive)
REMARK    1  A    between atoms: C_2  and  C_3
REMARK    2  A    between atoms: C_2  and  C_23
REMARK    3  A    between atoms: C_4  and  C_5
REMARK    4  A    between atoms: C_9  and  C_10
REMARK    5  A    between atoms: C_11  and  C_12
REMARK    6  A    between atoms: C_25  and  C_26
REMARK    7  A    between atoms: C_33  and  O_34
REMARK                            x       y       z     vdW  Elec       q    Type
REMARK                         _______ _______ _______ _____ _____    ______ ____
ROOT
ATOM      1  C   UNL     1     -31.146  10.037   6.367  0.00  0.00    +0.052 C 
ATOM      2  C   UNL     1     -31.301   8.835   6.942  0.00  0.00    +0.012 C 
ENDROOT
BRANCH   2   3
ATOM      3  C   UNL     1     -32.215   7.803   6.431  0.00  0.00    -0.024 A 
ATOM      4  C   UNL     1     -32.325   7.627   5.047  0.00  0.00    +0.008 A 
ATOM      5  C   UNL     1     -33.206   6.681   4.522  0.00  0.00    +0.001 A 
ATOM      6  C   UNL     1     -33.991   5.906   5.377  0.00  0.00    +0.008 A 
ATOM      7  C   UNL     1     -33.900   6.065   6.764  0.00  0.00    -0.024 A 
ATOM      8  C   UNL     1     -33.021   7.031   7.280  0.00  0.00    +0.016 A 
BRANCH   7   9
ATOM      9  C   UNL     1     -34.739   5.299   7.697  0.00  0.00    +0.010 C 
ATOM     10  C   UNL     1     -35.823   5.803   8.310  0.00  0.00    +0.028 C 
BRANCH  10  11
ATOM     11  C   UNL     1     -36.685   5.084   9.255  0.00  0.00    +0.065 A 
ATOM     12  C   UNL     1     -37.626   5.713  10.059  0.00  0.00    +0.028 A 
ATOM     13  C   UNL     1     -38.372   4.939  10.944  0.00  0.00    +0.012 A 
ATOM     14  C   UNL     1     -38.158   3.559  11.011  0.00  0.00    +0.000 A 
ATOM     15  C   UNL     1     -38.888   2.737  11.886  0.00  0.00    +0.010 A 
ATOM     16  C   UNL     1     -38.646   1.365  11.930  0.00  0.00    +0.001 A 
ATOM     17  C   UNL     1     -37.675   0.813  11.102  0.00  0.00    +0.002 A 
ATOM     18  C   UNL     1     -36.952   1.635  10.232  0.00  0.00    +0.028 A 
ATOM     19  C   UNL     1     -37.173   3.005  10.168  0.00  0.00    +0.072 A 
ATOM     20  N   UNL     1     -36.449   3.752   9.315  0.00  0.00    -0.247 NA
ENDBRANCH  10  11
ENDBRANCH   7   9
ENDBRANCH   2   3
BRANCH   1  22
ATOM     21  O   UNL     1     -30.628  11.983   7.581  0.00  0.00    -0.287 OA
ATOM     22  C   UNL     1     -30.212  11.092   6.842  0.00  0.00    +0.190 C 
BRANCH  22  23
ATOM     23  C   UNL     1     -28.804  11.120   6.396  0.00  0.00    +0.064 A 
ATOM     24  C   UNL     1     -27.987  10.043   6.771  0.00  0.00    +0.027 A 
ATOM     25  C   UNL     1     -26.646   9.996   6.367  0.00  0.00    +0.024 A 
ATOM     26  C   UNL     1     -26.144  11.036   5.568  0.00  0.00    +0.015 A 
ATOM     27  C   UNL     1     -26.963  12.099   5.173  0.00  0.00    +0.047 A 
ATOM     28  C   UNL     1     -28.295  12.135   5.581  0.00  0.00    +0.128 A 
BRANCH  25  29
ATOM     29  C   UNL     1     -25.791   8.885   6.769  0.00  0.00    +0.204 A 
ATOM     30  N   UNL     1     -26.226   7.857   7.574  0.00  0.00    -0.108 NA
ATOM     31  N   UNL     1     -25.200   7.037   7.739  0.00  0.00    -0.049 NA
ATOM     32  N   UNL     1     -24.209   7.593   7.037  0.00  0.00    -0.176 N 
ATOM     33  N   UNL     1     -24.500   8.745   6.415  0.00  0.00    -0.133 NA
ATOM     34  H   UNL     1     -23.288   7.166   6.984  0.00  0.00    +0.214 HD
ENDBRANCH  25  29
BRANCH  28  35
ATOM     35  O   UNL     1     -29.101  13.155   5.165  0.00  0.00    -0.506 OA
ATOM     36  H   UNL     1     -28.937  13.338   4.224  0.00  0.00    +0.292 HD
ENDBRANCH  28  35
ENDBRANCH  22  23
ENDBRANCH   1  22
TORSDOF 7
ENDMDL
MODEL 2
REMARK VINA RESULT:   -13.078      2.152      2.922
REMARK INTER + INTRA:         -19.263
REMARK INTER:                 -18.041
REMARK INTRA:                  -1.222
REMARK UNBOUND:                -1.216
REMARK  Name = CHEMBL12018
REMARK  7 active torsions:
REMARK  status: ('A' for Active; 'I' for Inactive)
REMARK    1  A    between atoms: C_2  and  C_3
REMARK    2  A    between atoms: C_2  and  C_23
REMARK    3  A    between atoms: C_4  and  C_5
REMARK    4  A    between atoms: C_9  and  C_10
REMARK    5  A    between atoms: C_11  and  C_12
REMARK    6  A    between atoms: C_25  and  C_26
REMARK    7  A    between atoms: C_33  and  O_34
REMARK                            x       y       z     vdW  Elec       q    Type
REMARK                         _______ _______ _______ _____ _____    ______ ____
ROOT
ATOM      1  C   UNL     1     -29.594   8.474   6.491  0.00  0.00    +0.052 C 
ATOM      2  C   UNL     1     -30.626   7.964   7.181  0.00  0.00    +0.012 C 
ENDROOT
BRANCH   2   3
ATOM      3  C   UNL     1     -31.815   7.377   6.546  0.00  0.00    -0.024 A 
ATOM      4  C   UNL     1     -32.083   7.682   5.207  0.00  0.00    +0.008 A 
ATOM      5  C   UNL     1     -33.220   7.172   4.578  0.00  0.00    +0.001 A 
ATOM      6  C   UNL     1     -34.103   6.356   5.287  0.00  0.00    +0.008 A 
ATOM      7  C   UNL     1     -33.857   6.038   6.627  0.00  0.00    -0.024 A 
ATOM      8  C   UNL     1     -32.719   6.570   7.252  0.00  0.00    +0.016 A 
BRANCH   7   9
ATOM      9  C   UNL     1     -34.784   5.217   7.420  0.00  0.00    +0.010 C 
ATOM     10  C   UNL     1     -35.678   5.727   8.284  0.00  0.00    +0.028 C 
BRANCH  10  11
ATOM     11  C   UNL     1     -36.615   4.950   9.104  0.00  0.00    +0.065 A 
ATOM     12  C   UNL     1     -37.773   5.486   9.652  0.00  0.00    +0.028 A 
ATOM     13  C   UNL     1     -38.578   4.669  10.440  0.00  0.00    +0.012 A 
ATOM     14  C   UNL     1     -38.207   3.341  10.669  0.00  0.00    +0.000 A 
ATOM     15  C   UNL     1     -38.989   2.477  11.456  0.00  0.00    +0.010 A 
ATOM     16  C   UNL     1     -38.587   1.160  11.667  0.00  0.00    +0.001 A 
ATOM     17  C   UNL     1     -37.406   0.703  11.095  0.00  0.00    +0.002 A 
ATOM     18  C   UNL     1     -36.632   1.566  10.313  0.00  0.00    +0.028 A 
ATOM     19  C   UNL     1     -37.008   2.883  10.086  0.00  0.00    +0.072 A 
ATOM     20  N   UNL     1     -36.228   3.672   9.326  0.00  0.00    -0.247 NA
ENDBRANCH  10  11
ENDBRANCH   7   9
ENDBRANCH   2   3
BRANCH   1  22
ATOM     21  O   UNL     1     -28.346  10.238   7.416  0.00  0.00    -0.287 OA
ATOM     22  C   UNL     1     -28.367   9.051   7.100  0.00  0.00    +0.190 C 
BRANCH  22  23
ATOM     23  C   UNL     1     -27.151   8.232   7.281  0.00  0.00    +0.064 A 
ATOM     24  C   UNL     1     -27.313   6.939   7.801  0.00  0.00    +0.027 A 
ATOM     25  C   UNL     1     -26.204   6.102   7.982  0.00  0.00    +0.024 A 
ATOM     26  C   UNL     1     -24.934   6.576   7.617  0.00  0.00    +0.015 A 
ATOM     27  C   UNL     1     -24.771   7.856   7.076  0.00  0.00    +0.047 A 
ATOM     28  C   UNL     1     -25.881   8.680   6.902  0.00  0.00    +0.128 A 
BRANCH  25  29
ATOM     29  C   UNL     1     -26.370   4.764   8.537  0.00  0.00    +0.204 A 
ATOM     30  N   UNL     1     -25.315   3.909   8.761  0.00  0.00    -0.108 NA
ATOM     31  N   UNL     1     -25.824   2.793   9.260  0.00  0.00    -0.049 NA
ATOM     32  N   UNL     1     -27.140   3.019   9.316  0.00  0.00    -0.176 N 
ATOM     33  N   UNL     1     -27.552   4.218   8.878  0.00  0.00    -0.133 NA
ATOM     34  H   UNL     1     -27.786   2.319   9.670  0.00  0.00    +0.214 HD
ENDBRANCH  25  29
BRANCH  28  35
ATOM     35  O   UNL     1     -25.724   9.915   6.341  0.00  0.00    -0.506 OA
ATOM     36  H   UNL     1     -25.332   9.824   5.456  0.00  0.00    +0.292 HD
ENDBRANCH  28  35
ENDBRANCH  22  23
ENDBRANCH   1  22
TORSDOF 7
ENDMDL
MODEL 3
REMARK VINA RESULT:   -12.902      5.172      9.863
REMARK INTER + INTRA:         -19.021
REMARK INTER:                 -17.718
REMARK INTRA:                  -1.303
REMARK UNBOUND:                -1.216
REMARK  Name = CHEMBL12018
REMARK  7 active torsions:
REMARK  status: ('A' for Active; 'I' for Inactive)
REMARK    1  A    between atoms: C_2  and  C_3
REMARK    2  A    between atoms: C_2  and  C_23
REMARK    3  A    between atoms: C_4  and  C_5
REMARK    4  A    between atoms: C_9  and  C_10
REMARK    5  A    between atoms: C_11  and  C_12
REMARK    6  A    between atoms: C_25  and  C_26
REMARK    7  A    between atoms: C_33  and  O_34
REMARK                            x       y       z     vdW  Elec       q    Type
REMARK                         _______ _______ _______ _____ _____    ______ ____
ROOT
ATOM      1  C   UNL     1     -31.840   2.390   9.656  0.00  0.00    +0.052 C 
ATOM      2  C   UNL     1     -32.404   3.554  10.012  0.00  0.00    +0.012 C 
ENDROOT
BRANCH   2   3
ATOM      3  C   UNL     1     -32.905   4.541   9.045  0.00  0.00    -0.024 A 
ATOM      4  C   UNL     1     -34.220   4.422   8.581  0.00  0.00    +0.008 A 
ATOM      5  C   UNL     1     -34.722   5.319   7.638  0.00  0.00    +0.001 A 
ATOM      6  C   UNL     1     -33.910   6.342   7.145  0.00  0.00    +0.008 A 
ATOM      7  C   UNL     1     -32.592   6.480   7.592  0.00  0.00    -0.024 A 
ATOM      8  C   UNL     1     -32.093   5.562   8.530  0.00  0.00    +0.016 A 
BRANCH   7   9
ATOM      9  C   UNL     1     -31.691   7.518   7.068  0.00  0.00    +0.010 C 
ATOM     10  C   UNL     1     -31.689   8.789   7.500  0.00  0.00    +0.028 C 
BRANCH  10  11
ATOM     11  C   UNL     1     -30.818   9.862   7.002  0.00  0.00    +0.065 A 
ATOM     12  C   UNL     1     -31.260  11.159   6.777  0.00  0.00    +0.028 A 
ATOM     13  C   UNL     1     -30.359  12.093   6.275  0.00  0.00    +0.012 A 
ATOM     14  C   UNL     1     -29.041  11.710   6.002  0.00  0.00    +0.000 A 
ATOM     15  C   UNL     1     -28.095  12.618   5.497  0.00  0.00    +0.010 A 
ATOM     16  C   UNL     1     -26.792  12.202   5.232  0.00  0.00    +0.001 A 
ATOM     17  C   UNL     1     -26.431  10.881   5.471  0.00  0.00    +0.002 A 
ATOM     18  C   UNL     1     -27.377   9.982   5.974  0.00  0.00    +0.028 A 
ATOM     19  C   UNL     1     -28.682  10.369   6.247  0.00  0.00    +0.072 A 
ATOM     20  N   UNL     1     -29.553   9.465   6.730  0.00  0.00    -0.247 NA
ENDBRANCH  10  11
ENDBRANCH   7   9
ENDBRANCH   2   3
BRANCH   1  22
ATOM     21  O   UNL     1     -32.060   0.396  10.883  0.00  0.00    -0.287 OA
ATOM     22  C   UNL     1     -31.347   1.358  10.607  0.00  0.00    +0.190 C 
BRANCH  22  23
ATOM     23  C   UNL     1     -30.034   1.499  11.269  0.00  0.00    +0.064 A 
ATOM     24  C   UNL     1     -29.030   2.189  10.572  0.00  0.00    +0.027 A 
ATOM     25  C   UNL     1     -27.766   2.375  11.149  0.00  0.00    +0.024 A 
ATOM     26  C   UNL     1     -27.531   1.874  12.439  0.00  0.00    +0.015 A 
ATOM     27  C   UNL     1     -28.538   1.207  13.146  0.00  0.00    +0.047 A 
ATOM     28  C   UNL     1     -29.790   1.027  12.562  0.00  0.00    +0.128 A 
BRANCH  25  29
ATOM     29  C   UNL     1     -26.717   3.078  10.419  0.00  0.00    +0.204 A 
ATOM     30  N   UNL     1     -26.149   4.249  10.865  0.00  0.00    -0.108 NA
ATOM     31  N   UNL     1     -25.247   4.607   9.964  0.00  0.00    -0.049 NA
ATOM     32  N   UNL     1     -25.306   3.652   9.032  0.00  0.00    -0.176 N 
ATOM     33  N   UNL     1     -26.200   2.675   9.244  0.00  0.00    -0.133 NA
ATOM     34  H   UNL     1     -24.708   3.671   8.210  0.00  0.00    +0.214 HD
ENDBRANCH  25  29
BRANCH  28  35
ATOM     35  O   UNL     1     -30.781   0.407  13.268  0.00  0.00    -0.506 OA
ATOM     36  H   UNL     1     -31.275  -0.190  12.682  0.00  0.00    +0.292 HD
ENDBRANCH  28  35
ENDBRANCH  22  23
ENDBRANCH   1  22
TORSDOF 7
ENDMDL
